# OOMMF OVF 2.0
# Segment count: 1
# Begin: Segment
# Begin: Header
# valuedim: 3
# Title: Current Density Field
# meshtype: rectangular
# meshunit: m
# xmin: -200e-9
# ymin: -50e-9
# zmin: 0.0
# xmax: 200e-9
# ymax: 50e-9
# zmax: 0.0
# xbase: -200e-9
# ybase: -50e-9
# zbase: 0
# xnodes: 200
# ynodes: 50
# znodes: 1
# xstepsize: 2e-9
# ystepsize: 2e-9
# zstepsize: 1e-9
# End: header
# Begin: Data text
0	0	0
0	0	0
0	0	0
0	0	0
0	0	0
0	0	0
0	0	0
0	0	0
0	0	0
0	0	0
0	0	0
0	0	0
0	0	0
0	0	0
0	0	0
0	0	0
0	0	0
0	0	0
0	0	0
0	0	0
0	0	0
0	0	0
0	0	0
0	0	0
0	0	0
0	0	0
0	0	0
0	0	0
0	0	0
0	0	0
0	0	0
0	0	0
0	0	0
0	0	0
0	0	0
0	0	0
0	0	0
0	0	0
0	0	0
0	0	0
0	0	0
0	0	0
0	0	0
0	0	0
0	0	0
0	0	0
0	0	0
0	0	0
0	0	0
0	0	0
0	0	0
0	0	0
0	0	0
0	0	0
0	0	0
0	0	0
0	0	0
0	0	0
0	0	0
0	0	0
0	0	0
0	0	0
0	0	0
0	0	0
0	0	0
0	0	0
0	0	0
0	0	0
0	0	0
0	0	0
0	0	0
0	0	0
0	0	0
0	0	0
0	0	0
0	0	0
0	0	0
0	0	0
0	0	0
0	0	0
0	0	0
0	0	0
0	0	0
0	0	0
0	0	0
0	0	0
0	0	0
0	0	0
0	0	0
0	0	0
0	0	0
0	0	0
0	0	0
0	0	0
0	0	0
0	0	0
0	0	0
0	0	0
0	0	0
0	0	0
0	0	0
0	0	0
0	0	0
0	0	0
0	0	0
0	0	0
0	0	0
0	0	0
0	0	0
0	0	0
0	0	0
0	0	0
0	0	0
0	0	0
0	0	0
0	0	0
0	0	0
0	0	0
0	0	0
0	0	0
0	0	0
0	0	0
0	0	0
0	0	0
0	0	0
0	0	0
0	0	0
0	0	0
0	0	0
0	0	0
0	0	0
0	0	0
0	0	0
0	0	0
0	0	0
0	0	0
0	0	0
0	0	0
0	0	0
0	0	0
0	0	0
0	0	0
0	0	0
0	0	0
0	0	0
0	0	0
0	0	0
0	0	0
0	0	0
0	0	0
0	0	0
0	0	0
0	0	0
0	0	0
0	0	0
0	0	0
0	0	0
0	0	0
0	0	0
0	0	0
0	0	0
0	0	0
0	0	0
0	0	0
0	0	0
0	0	0
0	0	0
0	0	0
0	0	0
0	0	0
0	0	0
0	0	0
0	0	0
0	0	0
0	0	0
0	0	0
0	0	0
0	0	0
0	0	0
0	0	0
0	0	0
0	0	0
0	0	0
0	0	0
0	0	0
0	0	0
0	0	0
0	0	0
0	0	0
0	0	0
0	0	0
0	0	0
0	0	0
0	0	0
0	0	0
0	0	0
0	0	0
0	0	0
0	0	0
0	0	0
0	0	0
0	0	0
0	0	0
0	0	0
0	0	0
0	0	0
0	0	0
0	0	0
0	0	0
0	0	0
0	0	0
0	0	0
0	0	0
0	0	0
0	0	0
0	0	0
0	0	0
0	0	0
0	0	0
0	0	0
0	0	0
0	0	0
0	0	0
0	0	0
0	0	0
0	0	0
0	0	0
0	0	0
0	0	0
0	0	0
0	0	0
0	0	0
0	0	0
0	0	0
0	0	0
0	0	0
0	0	0
0	0	0
0	0	0
0	0	0
0	0	0
0	0	0
0	0	0
0	0	0
0	0	0
0	0	0
0	0	0
0	0	0
0	0	0
0	0	0
0	0	0
0	0	0
0	0	0
0	0	0
0	0	0
0	0	0
0	0	0
0	0	0
0	0	0
0	0	0
0	0	0
0	0	0
0	0	0
0	0	0
0	0	0
0	0	0
0	0	0
0	0	0
0	0	0
0	0	0
0	0	0
0	0	0
0	0	0
0	0	0
0	0	0
0	0	0
0	0	0
0	0	0
0	0	0
0	0	0
0	0	0
0	0	0
0	0	0
0	0	0
0	0	0
0	0	0
0	0	0
0	0	0
0	0	0
0	0	0
0	0	0
0	0	0
0	0	0
0	0	0
0	0	0
0	0	0
0	0	0
0	0	0
0	0	0
0	0	0
0	0	0
0	0	0
0	0	0
0	0	0
0	0	0
0	0	0
0	0	0
0	0	0
0	0	0
0	0	0
0	0	0
0	0	0
0	0	0
0	0	0
0	0	0
0	0	0
0	0	0
0	0	0
0	0	0
0	0	0
0	0	0
0	0	0
0	0	0
0	0	0
0	0	0
0	0	0
0	0	0
0	0	0
0	0	0
0	0	0
0	0	0
0	0	0
0	0	0
0	0	0
0	0	0
0	0	0
0	0	0
0	0	0
0	0	0
0	0	0
0	0	0
0	0	0
0	0	0
0	0	0
0	0	0
0	0	0
0	0	0
0	0	0
0	0	0
0	0	0
0	0	0
0	0	0
0	0	0
0	0	0
0	0	0
0	0	0
0	0	0
0	0	0
0	0	0
0	0	0
0	0	0
0	0	0
0	0	0
0	0	0
0	0	0
0	0	0
0	0	0
0	0	0
0	0	0
0	0	0
0	0	0
0	0	0
0	0	0
0	0	0
0	0	0
0	0	0
0	0	0
0	0	0
0	0	0
0	0	0
0	0	0
0	0	0
0	0	0
0	0	0
209031.7484	-12938.84229	0
190905.7298	-10809.03194	0
173693.2341	-8817.474887	0
157352.7239	-6932.163692	0
141979.0844	-5108.934133	0
127250.0315	-3484.694855	0
113286.3585	-1951.661294	0
99900.10539	-538.8540601	0
87079.07533	910.6857455	0
74734.41949	2137.11643	0
62826.81762	3388.46881	0
51455.69931	4570.716332	0
40340.33281	5674.233758	0
29747.19249	6711.485791	0
19350.88163	7631.930786	0
9476.381014	8378.419054	0
0	0	0
0	0	0
0	0	0
0	0	0
0	0	0
0	0	0
0	0	0
0	0	0
0	0	0
0	0	0
0	0	0
0	0	0
0	0	0
0	0	0
0	0	0
0	0	0
0	0	0
0	0	0
0	0	0
0	0	0
0	0	0
0	0	0
0	0	0
0	0	0
0	0	0
0	0	0
0	0	0
0	0	0
0	0	0
0	0	0
0	0	0
0	0	0
0	0	0
0	0	0
0	0	0
0	0	0
0	0	0
0	0	0
0	0	0
0	0	0
0	0	0
0	0	0
0	0	0
0	0	0
0	0	0
0	0	0
0	0	0
0	0	0
0	0	0
0	0	0
0	0	0
0	0	0
0	0	0
0	0	0
0	0	0
0	0	0
0	0	0
0	0	0
0	0	0
0	0	0
0	0	0
0	0	0
0	0	0
0	0	0
0	0	0
0	0	0
0	0	0
0	0	0
0	0	0
0	0	0
0	0	0
0	0	0
0	0	0
0	0	0
0	0	0
0	0	0
0	0	0
0	0	0
0	0	0
0	0	0
0	0	0
0	0	0
0	0	0
0	0	0
0	0	0
0	0	0
0	0	0
0	0	0
0	0	0
0	0	0
0	0	0
0	0	0
0	0	0
0	0	0
0	0	0
0	0	0
0	0	0
0	0	0
0	0	0
0	0	0
0	0	0
0	0	0
0	0	0
0	0	0
0	0	0
0	0	0
0	0	0
0	0	0
0	0	0
0	0	0
0	0	0
0	0	0
0	0	0
0	0	0
0	0	0
0	0	0
0	0	0
0	0	0
0	0	0
0	0	0
0	0	0
0	0	0
0	0	0
0	0	0
0	0	0
0	0	0
0	0	0
0	0	0
0	0	0
0	0	0
0	0	0
0	0	0
0	0	0
0	0	0
0	0	0
0	0	0
0	0	0
0	0	0
0	0	0
0	0	0
0	0	0
0	0	0
0	0	0
0	0	0
0	0	0
0	0	0
0	0	0
0	0	0
0	0	0
0	0	0
0	0	0
0	0	0
0	0	0
0	0	0
0	0	0
0	0	0
0	0	0
0	0	0
0	0	0
0	0	0
0	0	0
0	0	0
0	0	0
0	0	0
0	0	0
0	0	0
0	0	0
0	0	0
745062.5676	-48316.71975	0
691630.0685	-40561.4427	0
641912.1683	-34148.14004	0
595007.1608	-28772.57653	0
551594.2411	-24089.30824	0
511050.6094	-19813.92249	0
473830.0245	-16466.39138	0
438445.8291	-12601.12952	0
405932.9262	-9623.688375	0
375452.0345	-6925.968459	0
347292.2981	-4757.818058	0
320584.1056	-2286.36629	0
295956.1107	-80.01732967	0
272266.7571	1378.943134	0
250582.4469	3050.301717	0
230047.8528	4212.793543	0
210717.9336	5624.470984	0
192425.5356	6870.236852	0
175172.4723	8025.795731	0
158805.8954	9009.847944	0
143228.52	9996.775714	0
128445.8853	11071.71111	0
114442.072	11795.78075	0
101006.9386	12628.63087	0
88095.29259	13439.19588	0
75777.03107	14236.87894	0
63763.2724	15068.25076	0
52403.02852	15857.11135	0
41271.83573	16550.6301	0
30499.73083	17231.37537	0
20101.44298	17833.95065	0
9972.713159	18225.48848	0
0	0	0
0	0	0
0	0	0
0	0	0
0	0	0
0	0	0
0	0	0
0	0	0
0	0	0
0	0	0
0	0	0
0	0	0
0	0	0
0	0	0
0	0	0
0	0	0
0	0	0
0	0	0
0	0	0
0	0	0
0	0	0
0	0	0
0	0	0
0	0	0
0	0	0
0	0	0
0	0	0
0	0	0
0	0	0
0	0	0
0	0	0
0	0	0
0	0	0
0	0	0
0	0	0
0	0	0
0	0	0
0	0	0
0	0	0
0	0	0
0	0	0
0	0	0
0	0	0
0	0	0
0	0	0
0	0	0
0	0	0
0	0	0
0	0	0
0	0	0
0	0	0
0	0	0
0	0	0
0	0	0
0	0	0
0	0	0
0	0	0
0	0	0
0	0	0
0	0	0
0	0	0
0	0	0
0	0	0
0	0	0
0	0	0
0	0	0
0	0	0
0	0	0
0	0	0
0	0	0
0	0	0
0	0	0
0	0	0
0	0	0
0	0	0
0	0	0
0	0	0
0	0	0
0	0	0
0	0	0
0	0	0
0	0	0
0	0	0
0	0	0
0	0	0
0	0	0
0	0	0
0	0	0
0	0	0
0	0	0
0	0	0
0	0	0
0	0	0
0	0	0
0	0	0
0	0	0
0	0	0
0	0	0
0	0	0
0	0	0
0	0	0
0	0	0
0	0	0
0	0	0
0	0	0
0	0	0
0	0	0
0	0	0
0	0	0
0	0	0
0	0	0
0	0	0
0	0	0
0	0	0
0	0	0
0	0	0
0	0	0
0	0	0
0	0	0
0	0	0
0	0	0
0	0	0
0	0	0
0	0	0
0	0	0
0	0	0
0	0	0
0	0	0
0	0	0
0	0	0
0	0	0
0	0	0
0	0	0
0	0	0
0	0	0
0	0	0
0	0	0
0	0	0
0	0	0
0	0	0
0	0	0
0	0	0
0	0	0
0	0	0
0	0	0
0	0	0
0	0	0
0	0	0
0	0	0
0	0	0
0	0	0
0	0	0
2637559.756	-163489.911	0
2421429.559	-145017.5986	0
2238795.329	-116014.2467	0
2065719.753	-98568.3253	0
1904881.879	-81146.5554	0
1759432.128	-66884.18803	0
1624540.183	-53638.34298	0
1500204.215	-41861.11747	0
1389266.238	-30711.70348	0
1282491.455	-23517.10618	0
1189012.829	-17881.07452	0
1100945.906	-10276.40643	0
1019525.696	-5905.880506	0
944754.1989	178.3609165	0
873567.6486	3653.456212	0
810692.6907	8003.300424	0
751273.0748	9868.022317	0
696053.1374	12872.3282	0
645308.6935	14747.90765	0
598950.4997	16349.10941	0
554484.4566	17928.0046	0
513860.6051	18768.18532	0
475661.6162	20693.14961	0
440553.6869	21267.80974	0
407126.8927	21961.61624	0
376988.6135	22573.82964	0
348276.0498	23093.23618	0
321797.3964	23283.98518	0
296947.2664	23783.68126	0
273206.2954	24004.38916	0
251499.5563	24121.64218	0
230930.2465	24452.93707	0
211270.8729	24610.0558	0
193235.1993	24666.15062	0
175678.8979	24748.36713	0
159252.9492	25021.02169	0
143779.4104	25087.51175	0
128952.7721	25334.5312	0
115007.8526	25581.80655	0
101487.3139	25798.59399	0
88674.4999	26095.58553	0
76331.43783	26433.56775	0
64351.43759	26753.1156	0
52968.93756	27103.26743	0
41752.29088	27488.48333	0
30993.20075	27836.53287	0
20513.96352	28151.4483	0
10185.46147	28353.53083	0
0	0	0
0	0	0
0	0	0
0	0	0
0	0	0
0	0	0
0	0	0
0	0	0
0	0	0
0	0	0
0	0	0
0	0	0
0	0	0
0	0	0
0	0	0
0	0	0
0	0	0
0	0	0
0	0	0
0	0	0
0	0	0
0	0	0
0	0	0
0	0	0
0	0	0
0	0	0
0	0	0
0	0	0
0	0	0
0	0	0
0	0	0
0	0	0
0	0	0
0	0	0
0	0	0
0	0	0
0	0	0
0	0	0
0	0	0
0	0	0
0	0	0
0	0	0
0	0	0
0	0	0
0	0	0
0	0	0
0	0	0
0	0	0
0	0	0
0	0	0
0	0	0
0	0	0
0	0	0
0	0	0
0	0	0
0	0	0
0	0	0
0	0	0
0	0	0
0	0	0
0	0	0
0	0	0
0	0	0
0	0	0
0	0	0
0	0	0
0	0	0
0	0	0
0	0	0
0	0	0
0	0	0
0	0	0
0	0	0
0	0	0
0	0	0
0	0	0
0	0	0
0	0	0
0	0	0
0	0	0
0	0	0
0	0	0
0	0	0
0	0	0
0	0	0
0	0	0
0	0	0
0	0	0
0	0	0
0	0	0
0	0	0
0	0	0
0	0	0
0	0	0
0	0	0
0	0	0
0	0	0
0	0	0
0	0	0
0	0	0
0	0	0
0	0	0
0	0	0
0	0	0
0	0	0
0	0	0
0	0	0
0	0	0
0	0	0
0	0	0
0	0	0
0	0	0
0	0	0
0	0	0
0	0	0
0	0	0
0	0	0
0	0	0
0	0	0
0	0	0
0	0	0
0	0	0
0	0	0
0	0	0
0	0	0
0	0	0
0	0	0
0	0	0
0	0	0
0	0	0
0	0	0
0	0	0
0	0	0
0	0	0
0	0	0
0	0	0
11274534.78	-780855.4924	0
10220022.79	-589550.5496	0
9280593.248	-466139.6317	0
8424551.978	-373867.5247	0
7639768.547	-293059.1013	0
6969485.244	-233393.5372	0
6348506.395	-177331.2446	0
5792192.697	-131353.1044	0
5287609.09	-95201.95787	0
4837509.72	-64066.04537	0
4428656.691	-26875.80797	0
4055341.724	-10724.18473	0
3720828.442	5582.527498	0
3413213.22	23432.16106	0
3131927.245	36299.01402	0
2881784.624	43607.96949	0
2650666.192	59447.69951	0
2441373.261	59839.39513	0
2250633.226	68853.20698	0
2074930.898	69932.92934	0
1910542.066	76132.09191	0
1766792.531	74429.167	0
1630877.161	75147.33761	0
1505711.481	76369.13024	0
1394297.469	78020.33043	0
1288159.117	76498.09309	0
1192274.235	76117.11418	0
1102543.012	74599.04854	0
1021945.99	74259.96875	0
944771.1699	72237.06042	0
875534.5167	70538.00585	0
811167.2904	69313.54161	0
752201.3796	68323.03762	0
696078.5734	65551.8431	0
645800.0508	63676.54339	0
597439.3883	62192.61221	0
554030.9849	59948.59103	0
513309.1539	58755.49397	0
475258.1536	56944.28148	0
440230.0571	55721.96927	0
407187.4912	53651.39916	0
376418.4013	52081.31094	0
347435.5041	50527.40433	0
321243.7295	49413.15719	0
296417.4796	47775.87013	0
273045.7525	46506.71888	0
250885.221	45405.07627	0
230357.9255	44554.95425	0
211021.8682	43518.91958	0
192759.987	42317.7501	0
175471.9497	41664.81924	0
159034.2058	40900.44427	0
143710.144	40364.0399	0
128845.2039	39729.75785	0
114922.1794	39260.22046	0
101523.4407	38935.75251	0
88708.68659	38646.16825	0
76422.89478	38478.7914	0
64568.76189	38383.40359	0
53102.9702	38408.96583	0
42034.94448	38414.40656	0
31203.02667	38495.90038	0
20668.66316	38585.4665	0
10287.51183	38670.36947	0
0	0	0
0	0	0
0	0	0
0	0	0
0	0	0
0	0	0
0	0	0
0	0	0
0	0	0
0	0	0
0	0	0
0	0	0
0	0	0
0	0	0
0	0	0
0	0	0
0	0	0
0	0	0
0	0	0
0	0	0
0	0	0
0	0	0
0	0	0
0	0	0
0	0	0
0	0	0
0	0	0
0	0	0
0	0	0
0	0	0
0	0	0
0	0	0
0	0	0
0	0	0
0	0	0
0	0	0
0	0	0
0	0	0
0	0	0
0	0	0
0	0	0
0	0	0
0	0	0
0	0	0
0	0	0
0	0	0
0	0	0
0	0	0
0	0	0
0	0	0
0	0	0
0	0	0
0	0	0
0	0	0
0	0	0
0	0	0
0	0	0
0	0	0
0	0	0
0	0	0
0	0	0
0	0	0
0	0	0
0	0	0
0	0	0
0	0	0
0	0	0
0	0	0
0	0	0
0	0	0
0	0	0
0	0	0
0	0	0
0	0	0
0	0	0
0	0	0
0	0	0
0	0	0
0	0	0
0	0	0
0	0	0
0	0	0
0	0	0
0	0	0
0	0	0
0	0	0
0	0	0
0	0	0
0	0	0
0	0	0
0	0	0
0	0	0
0	0	0
0	0	0
0	0	0
0	0	0
0	0	0
0	0	0
0	0	0
0	0	0
0	0	0
0	0	0
0	0	0
0	0	0
0	0	0
0	0	0
0	0	0
0	0	0
0	0	0
0	0	0
0	0	0
0	0	0
0	0	0
0	0	0
0	0	0
0	0	0
0	0	0
0	0	0
0	0	0
0	0	0
71212190.17	-4867194.891	0
62528953.83	-3666588.968	0
55176933.84	-2628528.821	0
48624602.89	-1957791.715	0
43045265.88	-1376995.233	0
37969570.61	-918352.2323	0
33847236.55	-626044.9096	0
30061330.33	-328730.1679	0
26824038.95	-130850.0337	0
23911311.91	28759.86825	0
21425594.59	180997.3985	0
19214366.24	235185.5712	0
17237984.77	299705.0703	0
15505101.9	370763.1441	0
13965905.24	368643.3181	0
12606491.29	445402.6781	0
11355841.91	442650.9978	0
10282222.64	442886.2972	0
9317291.061	443751.5865	0
8473278.655	442368.5436	0
7680333.011	425305.603	0
6984625.654	423552.8275	0
6369788.028	407695.3567	0
5811730.774	409168.3566	0
5305577.683	378842.3353	0
4841528.865	371095.3736	0
4431039.994	359120.0723	0
4056605.525	344416.5166	0
3723926.385	325656.7422	0
3414830.763	316269.9294	0
3131839.354	300944.3957	0
2881035.463	287902.9383	0
2648858.254	274782.5056	0
2436330.705	262910.1147	0
2244917.875	248549.0731	0
2072301.236	237842.2338	0
1910150.565	227819.4433	0
1762664.089	212476.7208	0
1625278.353	205740.3404	0
1501847.724	195038.976	0
1389342.501	184175.8093	0
1283858.869	176364.098	0
1187005.747	168171.343	0
1096833.793	160133.402	0
1017368.479	151581.8808	0
940795.1307	144742.1387	0
871713.9603	137452.7683	0
807139.8971	130921.5812	0
747505.5211	124867.1505	0
692632.6344	118103.7604	0
641161.8764	113125.1802	0
594410.3177	107758.4622	0
550712.242	102751.0341	0
509763.8368	97962.99329	0
472420.1852	93883.99181	0
437327.8262	89584.10766	0
404606.1346	85107.05069	0
374080.3632	81923.55463	0
345583.0568	78125.65551	0
319076.901	75006.1916	0
294370.2592	71816.04818	0
270746.316	69243.18706	0
249155.8099	66543.85626	0
228786.5829	64236.65543	0
209531.5945	62208.30651	0
191362.4212	60023.97971	0
174247.9118	58455.32364	0
158006.3599	56677.47548	0
142649.9543	55312.98439	0
128092.3314	54046.64099	0
114247.0763	52883.69935	0
100852.8053	51936.47589	0
88186.90514	51160.80857	0
76088.21072	50603.24255	0
64333.66591	49973.72408	0
52957.49454	49635.68692	0
41924.92531	49341.9571	0
31194.33631	49139.99675	0
20629.86625	49035.43096	0
10277.86854	48980.33371	0
0	0	0
0	0	0
0	0	0
0	0	0
0	0	0
0	0	0
0	0	0
0	0	0
0	0	0
0	0	0
0	0	0
0	0	0
0	0	0
0	0	0
0	0	0
0	0	0
0	0	0
0	0	0
0	0	0
0	0	0
0	0	0
0	0	0
0	0	0
0	0	0
0	0	0
0	0	0
0	0	0
0	0	0
0	0	0
0	0	0
0	0	0
0	0	0
0	0	0
0	0	0
0	0	0
0	0	0
0	0	0
0	0	0
0	0	0
0	0	0
0	0	0
0	0	0
0	0	0
0	0	0
0	0	0
0	0	0
0	0	0
0	0	0
0	0	0
0	0	0
0	0	0
0	0	0
0	0	0
0	0	0
0	0	0
0	0	0
0	0	0
0	0	0
0	0	0
0	0	0
0	0	0
0	0	0
0	0	0
0	0	0
0	0	0
0	0	0
0	0	0
0	0	0
0	0	0
0	0	0
0	0	0
0	0	0
0	0	0
0	0	0
0	0	0
0	0	0
0	0	0
0	0	0
0	0	0
0	0	0
0	0	0
0	0	0
0	0	0
0	0	0
0	0	0
0	0	0
0	0	0
0	0	0
0	0	0
0	0	0
0	0	0
0	0	0
0	0	0
0	0	0
0	0	0
0	0	0
0	0	0
0	0	0
0	0	0
0	0	0
0	0	0
0	0	0
0	0	0
0	0	0
905396987.5	-55131112.91	0
731667545.5	-32090199.84	0
591989559.6	-32461749.47	0
501136997.9	-16535442.95	0
423800118.9	-8907884.052	0
358912225.5	-3892526.631	0
303696395.1	-961898.1271	0
260095708.8	1346536.86	0
222336519.6	2859658.597	0
191335372.9	4672796.536	0
165025780.8	5098320.843	0
142900210.8	5252641.577	0
123393473.4	5080222.681	0
107362487.4	5197825.45	0
93782523.41	5463482.565	0
81694320.23	5057273.01	0
71618297.93	4942883.982	0
62866253.74	4722628.622	0
55439365.75	4205305.994	0
48804905.86	4238335.585	0
42939697.45	3901549.164	0
38225968.25	3541934.293	0
33868681.42	3368764.905	0
30110630.18	3135630.351	0
26789706.44	2919806.585	0
23901935.64	2735764.093	0
21392351.6	2510696.186	0
19160198.98	2305270.955	0
17191045.92	2188455.325	0
15440139.04	1982573.175	0
13862270.09	1814208.736	0
12539079.72	1731554.695	0
11328993.89	1581983.263	0
10220210.49	1462492.788	0
9252806.424	1390225.089	0
8413655.182	1256162.401	0
7637484.596	1168125.705	0
6946513.47	1071012.406	0
6316838.079	1001930.179	0
5770645.406	932595.6833	0
5264433.763	871174.8552	0
4804990.21	804647.1412	0
4398071.399	746449.6328	0
4020166.225	697797.7444	0
3690040.027	656139.168	0
3388579.47	612894.3029	0
3108452.968	564527.2711	0
2854750.825	529478.5393	0
2626901.835	496472.8451	0
2414701.486	464071.4999	0
2223234.819	433970.1513	0
2050901.028	405365.2533	0
1891086.867	380883.0265	0
1743783.093	356761.8178	0
1610552.093	333821.5957	0
1488441.826	313950.6836	0
1375265.101	292706.1592	0
1270459.442	276797.5981	0
1174455.779	260046.8664	0
1088008.578	245590.8499	0
1006011.898	229811.8516	0
930962.2491	216976.8411	0
862311.6698	204370.2877	0
798339.5313	192337.4977	0
739326.9672	181739.7104	0
684928.4847	171411.5744	0
634458.3826	161868.4039	0
587387.8161	153044.5021	0
543887.868	144740.1661	0
504009.9523	137121.6511	0
466683.8083	129736.4281	0
432202.8889	122607.925	0
399574.1215	116912.5887	0
369267.0802	110812.5133	0
341400.2952	105443.0289	0
315047.6443	100495.4798	0
290597.8013	96182.08359	0
267474.2697	91470.97877	0
245985.5325	87566.11602	0
225820.8508	84004.48682	0
206950.1593	80522.87979	0
188995.0127	77739.7735	0
171989.8398	74843.03774	0
155997.3864	72350.08249	0
140984.0689	70072.23775	0
126592.7375	68198.00476	0
112852.2803	66491.41379	0
99817.02265	64890.97677	0
87200.75614	63501.35319	0
75294.07995	62303.12492	0
63650.22202	61500.24032	0
52452.83907	60736.88273	0
41533.652	60221.96144	0
30927.29385	59745.36855	0
20480.19418	59458.04684	0
10202.76349	59262.39906	0
0	0	0
0	0	0
0	0	0
0	0	0
0	0	0
0	0	0
0	0	0
0	0	0
0	0	0
0	0	0
0	0	0
0	0	0
0	0	0
0	0	0
0	0	0
0	0	0
0	0	0
0	0	0
0	0	0
0	0	0
0	0	0
0	0	0
0	0	0
0	0	0
0	0	0
0	0	0
0	0	0
0	0	0
0	0	0
0	0	0
0	0	0
0	0	0
0	0	0
0	0	0
0	0	0
0	0	0
0	0	0
0	0	0
0	0	0
0	0	0
0	0	0
0	0	0
0	0	0
0	0	0
0	0	0
0	0	0
0	0	0
0	0	0
0	0	0
0	0	0
0	0	0
0	0	0
0	0	0
0	0	0
0	0	0
0	0	0
0	0	0
0	0	0
0	0	0
0	0	0
0	0	0
0	0	0
0	0	0
0	0	0
0	0	0
0	0	0
0	0	0
0	0	0
0	0	0
0	0	0
0	0	0
0	0	0
0	0	0
0	0	0
0	0	0
0	0	0
0	0	0
0	0	0
0	0	0
0	0	0
0	0	0
0	0	0
0	0	0
0	0	0
0	0	0
0	0	0
0	0	0
0	0	0
-68574962779	4285547346	0
-68309419143	4251005093	0
-68036921397	4217987957	0
-67759020746	4182964151	0
-67471770545	4142967332	0
-67177341531	4101964428	0
-66863139510	4058031491	0
-66601433854	4024832007	0
-66062679714	3877533014	0
-65938669736	3493307656	0
-58294398195	2424879156	0
-43874413562	2635595715	0
-30639790881	1900942925	0
-17481827231	1159348752	0
-4596079334	689038945.1	0
1294253752	591522954	0
870763399.2	152701387.3	0
720792945	107111869.5	0
600507698.4	85272757.9	0
500894791.5	74814224.95	0
421179125.1	63851672.94	0
358237365.4	54165694.11	0
301547205	48371522.8	0
258603557.7	42347082.3	0
220393576.9	37215821.06	0
189462754.8	32916284.98	0
163490204.4	29040371.6	0
141439572.8	25974744.31	0
122569047.1	23223729.58	0
105669399.3	20188697.98	0
92210806.77	18023683.18	0
80893574.28	16118091.07	0
70729292.68	14321791.85	0
62124798.64	12838857.36	0
54647837.02	11427200.22	0
48083773.63	10302441.82	0
42449520.39	9132056.655	0
37517240.2	8220403.326	0
33378848.03	7435516.856	0
29606020.01	6655748.092	0
26402821.69	6038586.694	0
23519556.77	5378788.849	0
21033961.3	4881837.953	0
18854998.09	4414894.5	0
16890122.33	3984126.144	0
15194816.69	3605348.6	0
13661739.22	3287867.902	0
12305612.26	3004740.56	0
11113919.41	2706189.208	0
10074358.62	2468743.124	0
9100644.627	2262048.1	0
8262990.289	2089179.066	0
7502643.155	1901366.003	0
6815152.995	1729136.68	0
6221478.762	1594430.906	0
5661756.93	1463875.726	0
5180002.347	1349047.729	0
4729091.657	1231071.732	0
4327830.379	1133412.391	0
3959117.12	1047763.425	0
3626309.11	968437.1172	0
3330422.996	896381.4698	0
3057162.312	827270.9693	0
2809970.176	769263.9218	0
2587963.095	711867.6114	0
2376832.436	664208.2739	0
2189250.413	613936.5252	0
2017303.703	572818.3776	0
1858942.749	531655.5696	0
1714684.95	495416.4801	0
1582023.104	461370.9861	0
1462410.298	430193.4472	0
1351546.497	402079.1027	0
1249090.113	375681.9658	0
1155574.565	351950.2932	0
1068699.204	328004.3685	0
988762.7136	307494.9721	0
915282.1728	288321.1587	0
847519.1803	269532.571	0
784452.3661	253673.679	0
725766.1526	237825.9155	0
673135.026	223293.8336	0
623734.5789	209740.2558	0
577465.9885	197445.8011	0
534300.6123	186149.3737	0
495538.263	175747.6126	0
458719.6713	165528.4767	0
424195.1339	156347.5543	0
392638.4482	147411.8273	0
362605.1383	139683.9075	0
335185.3867	132515.8275	0
309550.0864	125478.1978	0
285155.096	119384.1449	0
262785.8565	113590.7452	0
241363.9782	108295.8685	0
221727.6282	103506.4253	0
203198.9765	98802.31375	0
185498.9073	94867.64049	0
168954.5024	90950.17814	0
153273.5485	87807.49059	0
138358.2822	84748.25404	0
124412.2809	81913.00508	0
110928.9517	79681.60474	0
98107.44369	77530.96919	0
85768.25515	75761.37306	0
74073.02916	74193.61283	0
62639.92948	72744.82821	0
51589.30792	71597.59265	0
40929.32525	70841.48828	0
30475.61865	70164.18076	0
20160.00104	69713.24651	0
10090.68154	69429.66669	0
0	0	0
0	0	0
0	0	0
0	0	0
0	0	0
0	0	0
0	0	0
0	0	0
0	0	0
0	0	0
0	0	0
0	0	0
0	0	0
0	0	0
0	0	0
0	0	0
0	0	0
0	0	0
0	0	0
0	0	0
0	0	0
0	0	0
0	0	0
0	0	0
0	0	0
0	0	0
0	0	0
0	0	0
0	0	0
0	0	0
0	0	0
0	0	0
0	0	0
0	0	0
0	0	0
0	0	0
0	0	0
0	0	0
0	0	0
0	0	0
0	0	0
0	0	0
0	0	0
0	0	0
0	0	0
0	0	0
0	0	0
0	0	0
0	0	0
0	0	0
0	0	0
0	0	0
0	0	0
0	0	0
0	0	0
0	0	0
0	0	0
0	0	0
0	0	0
0	0	0
0	0	0
0	0	0
0	0	0
0	0	0
0	0	0
0	0	0
0	0	0
0	0	0
0	0	0
0	0	0
0	0	0
0	0	0
-72748176642	4546614918	0
-72482903835	4513337608	0
-72219160071	4480390624	0
-71956875381	4447814473	0
-71696721462	4415308814	0
-71436986177	4383349402	0
-71178857341	4351286331	0
-70921690822	4319488850	0
-70665333419	4287654510	0
-70409878308	4255876824	0
-70154666658	4223963445	0
-69899519235	4191921593	0
-69644180205	4159556843	0
-69388175570	4126473087	0
-69130992954	4092888382	0
-68871991473	4057838704	0
-68610404243	4021248858	0
-68345624218	3984093296	0
-68076100941	3944232463	0
-67800213487	3900897583	0
-67516369898	3851216201	0
-67227300319	3801257413	0
-66922004794	3741548030	0
-66601695889	3673117126	0
-66240580182	3562757036	0
-66578060624	1887001959	0
-58456888096	3688085359	0
-44507456023	2260378557	0
-31297442214	1834257093	0
-18055530002	1133715588	0
-5573720607	455822021.8	0
1028934245	104637996.3	0
824472103.8	257199219.4	0
684060885.5	232258148.3	0
574242274.5	193163705.6	0
479096723.5	159765908.7	0
405522464.2	134577668	0
344234982.4	115093327.5	0
287638224.7	101056495.1	0
249274257.9	82680075.66	0
213243170.3	70446658.53	0
183293381.9	60743282.71	0
157689490.9	52413808.06	0
136402639.7	45906445.82	0
118001148.1	39796610.25	0
102639734.8	34933465.31	0
89890488.63	30494686.91	0
78362026.19	26720792.57	0
68304886.16	23484478.74	0
59783623.48	20534901.23	0
52707921.99	18271567.61	0
46539556.63	16149218.49	0
41107918.07	14411383.15	0
36481213.83	12724801.17	0
32324273.5	11220175.84	0
28701740.95	10092034.66	0
25586367.83	8937536.985	0
22776486.84	8030832.633	0
20415467.45	7220976.905	0
18282998.4	6462314.39	0
16411692.17	5763552.684	0
14726649.22	5227241.411	0
13251381.13	4685791.283	0
11972572.82	4212990.896	0
10799355.28	3870588.585	0
9782233.064	3484629.681	0
8868695.685	3128069.029	0
8022780.713	2854553.856	0
7304477.664	2595041.553	0
6637350.491	2365873.685	0
6051815.169	2156058.307	0
5520951.475	1984127.385	0
5039056.925	1803924.033	0
4605837.196	1658270.481	0
4218368.107	1517475.153	0
3856762.429	1389961.338	0
3539070.252	1276799.76	0
3243514.21	1177625.11	0
2982349.886	1086722.764	0
2738612.101	1001384.465	0
2519301.921	925779.2876	0
2319002.64	855121.9831	0
2136644.762	794702.6056	0
1967611.46	733757.4803	0
1817576.931	680862.3772	0
1674403.505	629099.8167	0
1544348.806	586512.5804	0
1429484.093	545800.7943	0
1318557.733	507152.7633	0
1218155.273	471860.3336	0
1128079.318	440703.2484	0
1043020.544	410870.4575	0
965946.1578	382882.87	0
893769.6453	357670.6421	0
827831.7793	334677.1967	0
765464.2224	312620.3251	0
709430.3144	293091.9319	0
657640.3616	274720.8522	0
608747.7622	257634.2335	0
564041.4084	241576.6157	0
521468.457	226618.6043	0
483485.4357	212973.1957	0
447820.194	201107.8874	0
414333.869	188591.2812	0
383139.3247	178370.2899	0
354053.7415	168172.0768	0
327655.0188	158991.3051	0
302162.1953	150194.8703	0
278496.3385	142135.2767	0
256181.2232	135270.6651	0
235933.9463	128680.7484	0
216493.9546	122293.1732	0
198341.4044	116810.9029	0
181164.3728	111614.1682	0
164975.7296	106989.6928	0
149735.6869	102755.4659	0
135160.0561	98924.96263	0
121529.3556	95589.2799	0
108369.2008	92558.51697	0
95859.1508	89941.2511	0
83858.84105	87513.14651	0
72400.00924	85548.01153	0
61302.10946	83723.65182	0
50483.86717	82413.56926	0
39992.94714	81259.05744	0
29862.09349	80386.7044	0
19791.30329	79776.35541	0
9865.581172	79447.05846	0
0	0	0
0	0	0
0	0	0
0	0	0
0	0	0
0	0	0
0	0	0
0	0	0
0	0	0
0	0	0
0	0	0
0	0	0
0	0	0
0	0	0
0	0	0
0	0	0
0	0	0
0	0	0
0	0	0
0	0	0
0	0	0
0	0	0
0	0	0
0	0	0
0	0	0
0	0	0
0	0	0
0	0	0
0	0	0
0	0	0
0	0	0
0	0	0
0	0	0
0	0	0
0	0	0
0	0	0
0	0	0
0	0	0
0	0	0
0	0	0
0	0	0
0	0	0
0	0	0
0	0	0
0	0	0
0	0	0
0	0	0
0	0	0
0	0	0
0	0	0
0	0	0
0	0	0
0	0	0
0	0	0
0	0	0
0	0	0
-77294871962	4831424516	0
-76996805098	4793463761	0
-76700904855	4756340471	0
-76407091283	4719813886	0
-76115398085	4684405793	0
-75826641724	4648394785	0
-75539351274	4612750822	0
-75254384824	4578141934	0
-74971398588	4543783274	0
-74690861458	4509698464	0
-74412374534	4475768453	0
-74135340049	4442349413	0
-73860840650	4409319413	0
-73587628171	4376820832	0
-73317008994	4344334387	0
-73047810071	4312356174	0
-72780921745	4280814001	0
-72515005975	4248979225	0
-72251115774	4217592202	0
-71988851978	4186295650	0
-71728019334	4155586706	0
-71468588115	4124370064	0
-71210246304	4093669352	0
-70953095042	4062777109	0
-70696962527	4031743766	0
-70441473148	4000604424	0
-70186557132	3969041380	0
-69931866253	3936962725	0
-69677341413	3904228153	0
-69421969882	3870589291	0
-69165748717	3835640869	0
-68909121086	3799149138	0
-68648256547	3760885710	0
-68386604478	3718922674	0
-68120267354	3674294115	0
-67848500893	3623783160	0
-67572148702	3568697983	0
-67285044799	3508155696	0
-66991843329	3435631845	0
-66682443339	3347065594	0
-66372000527	3248045080	0
-68161646177	4185375729	0
-59354874402	2462439987	0
-45219034250	2328969153	0
-31875082661	1774217400	0
-18599483159	1379016595	0
-5663080706	882883610.8	0
1021111939	568063528.1	0
776735759.6	425475182.4	0
629056816.9	355945644.1	0
529273999.7	286368340.5	0
444671505.2	238011586.2	0
373547116.9	198699597.3	0
320062963.9	167193077.4	0
271999452.4	141332695.6	0
232170421.9	119791366.1	0
199421084.3	102475456.7	0
172056179.4	87211297.3	0
148030778.9	75188224.49	0
128367813.3	64794182.22	0
111265242.4	56087135.47	0
96865659.91	48804253.18	0
84631407.98	42316228.75	0
74048935.27	36988236.78	0
64971723.39	32100758.74	0
56829431.91	28389086.1	0
50068908.81	24780668.11	0
44057130.3	21888356.13	0
38972861.26	19365165.64	0
34610829.53	17012326.7	0
30625088.07	15043371.3	0
27328411.46	13308643.65	0
24353919.43	11823073.14	0
21734652.53	10536153.46	0
19390170.64	9381032.835	0
17465730.62	8438913.683	0
15669684.23	7514038.269	0
14101689.82	6724309.068	0
12708002.13	6039143.142	0
11478166.4	5414421.73	0
10358083.75	4886373.723	0
9395502.896	4399072.084	0
8515057.759	4016068.922	0
7719070.127	3605036.664	0
7003476.731	3274007.683	0
6396096.612	2972403.818	0
5820998.151	2701436.912	0
5323079.839	2469205.384	0
4858853.573	2246697.347	0
4444564.508	2051931.447	0
4065455.426	1879966.344	0
3725948.977	1725274.287	0
3415755.39	1581298.408	0
3131832.986	1449669.407	0
2877377.873	1332809.352	0
2649901.49	1231441.931	0
2439121.51	1128711.206	0
2244040.377	1044610.87	0
2067131.421	964105.0955	0
1901144.935	892185.3916	0
1756942.698	824120.6402	0
1621454.53	764541.6715	0
1496167.255	707592.2929	0
1383006.974	656966.5387	0
1278741.368	608941.607	0
1183209.705	565971.0956	0
1092531.253	527085.9919	0
1012291.941	491180.3721	0
935587.8502	456832.9451	0
867311.4577	427382.0905	0
802864.1176	396633.7856	0
743930.9285	371690.5587	0
688487.2974	346960.2784	0
637243.4074	323903.6561	0
591285.7727	302708.5636	0
547355.5209	285128.2204	0
506571.0443	266178.7197	0
468797.1664	250026.234	0
434427.4924	234513.9728	0
401960.7614	220704.9288	0
371669.6711	207596.8517	0
343375.3317	194866.1329	0
317487.4022	184698.5163	0
293011.6501	174137.4832	0
270183.634	164786.2257	0
248800.7944	156260.3737	0
228949.491	148062.8082	0
209999.0343	140897.3013	0
192536.3924	134030.8852	0
175730.1857	128170.4141	0
160237.5133	122480.8536	0
145349.2315	117361.6064	0
131238.185	112975.01	0
117924.5121	108732.5659	0
105129.9951	105134.44	0
93184.86553	101987.731	0
81427.31546	99150.85814	0
70363.09273	96614.16376	0
59546.47973	94617.22084	0
49079.37515	92869.30297	0
38952.23502	91495.15183	0
28928.58637	90283.32959	0
19257.18358	89684.39754	0
9597.709695	89188.75546	0
0	0	0
0	0	0
0	0	0
0	0	0
0	0	0
0	0	0
0	0	0
0	0	0
0	0	0
0	0	0
0	0	0
0	0	0
0	0	0
0	0	0
0	0	0
0	0	0
0	0	0
0	0	0
0	0	0
0	0	0
0	0	0
0	0	0
0	0	0
0	0	0
0	0	0
0	0	0
0	0	0
0	0	0
0	0	0
0	0	0
0	0	0
0	0	0
0	0	0
0	0	0
0	0	0
0	0	0
0	0	0
0	0	0
0	0	0
0	0	0
-82446458973	5151640600	0
-82106919493	5110358669	0
-81770351777	5068306103	0
-81436607052	5026776775	0
-81105142378	4986021951	0
-80776765509	4945605913	0
-80451072276	4905312707	0
-80127684813	4866221828	0
-79806955504	4827139281	0
-79488883991	4788667829	0
-79173252762	4750471499	0
-78860351778	4712805801	0
-78549851063	4675515267	0
-78241554161	4639258260	0
-77936037399	4602411442	0
-77632352111	4566744809	0
-77331297140	4531328790	0
-77033168312	4496602462	0
-76736245653	4461719051	0
-76442198958	4427371746	0
-76150240097	4393372225	0
-75860436918	4359988706	0
-75573502585	4326904128	0
-75288029523	4294196637	0
-75005268793	4261609645	0
-74723663050	4229915292	0
-74444593386	4198129994	0
-74167791868	4166568975	0
-73892322618	4135530799	0
-73619461282	4104637870	0
-73348364917	4074508339	0
-73079017767	4043930569	0
-72811483248	4013861143	0
-72545790884	3984006398	0
-72281683787	3954343764	0
-72019279206	3924818098	0
-71758245771	3895168519	0
-71498494983	3865652164	0
-71240358100	3835826165	0
-70983521583	3806190639	0
-70727603171	3776096385	0
-70472603633	3745750146	0
-70218174721	3714636721	0
-69964344942	3682715332	0
-69710447935	3649938302	0
-69456742815	3615570574	0
-69202519485	3579696448	0
-68946792671	3541680666	0
-68690491983	3500560756	0
-68431671520	3456720271	0
-68169226803	3407176962	0
-67903598711	3353652265	0
-67634108840	3292706675	0
-67358637472	3223079186	0
-67074638443	3138212728	0
-66786271823	3044142736	0
-66483491870	2929834034	0
-66112633314	2695166412	0
-59037955663	2195133117	0
-45676665161	2069229096	0
-32305785217	1708563928	0
-19109786532	1261622158	0
-2966807874	2412468142	0
605531960.8	658602182.1	0
592938590.9	554665208.2	0
542880915	455778187	0
462583775	374758386.2	0
392738761.9	308339545.5	0
336272832.4	256662836.3	0
285579097.7	215524579	0
245576341.2	182734592.6	0
209680401.5	154138668	0
180655352.5	130256881.2	0
155961670.7	111410907.7	0
135520766.3	95875655.41	0
117876270.9	81845423.59	0
101973417.2	71007950.82	0
89247090	61382231.51	0
77988753.04	53288582.99	0
68104451.77	46292953.52	0
59808599.77	40531082.09	0
52614673.62	35244036.25	0
46404525.86	30910253.59	0
40803110.37	27229106.6	0
36299292.78	23844096.52	0
32237043.13	21084351.45	0
28652034.64	18530751.58	0
25551843.32	16377604.67	0
22799061.63	14493548.51	0
20394219.53	12920933.83	0
18275070.39	11442605.58	0
16387635.03	10202752.33	0
14744906.48	9120113.14	0
13266844.64	8153827.885	0
11973602.13	7310271.64	0
10841028.46	6541703.871	0
9799783.446	5898802.185	0
8882858.469	5314059.295	0
8068004.225	4786489.357	0
7327824.19	4329362.809	0
6651513.687	3921359.504	0
6081103.383	3547367.676	0
5547744.688	3235641.33	0
5059329.074	2934964.555	0
4619673.318	2674318.066	0
4240326.467	2440541.124	0
3877597.618	2227777.407	0
3559547.923	2038652.466	0
3268487.984	1859331.181	0
3004946.709	1716315.067	0
2752056.209	1570758.046	0
2540066.251	1440585.741	0
2337212.918	1327838.905	0
2151949.748	1225924.449	0
1981614.378	1131368.593	0
1828784.27	1041531.824	0
1688748.599	964548.5949	0