# OOMMF OVF 2.0
# Segment count: 1
# Begin: Segment
# Begin: Header
# valuedim: 3
# Title: Current Density Field
# meshtype: rectangular
# meshunit: m
# xmin: -200e-9
# ymin: -50e-9
# zmin: 0.0
# xmax: 200e-9
# ymax: 50e-9
# zmax: 0.0
# xbase: -200e-9
# ybase: -50e-9
# zbase: 0
# xnodes: 200
# ynodes: 50
# znodes: 1
# xstepsize: 2e-9
# ystepsize: 2e-9
# zstepsize: 1e-9
# End: header
# Begin: Data text
0	0	0
0	0	0
0	0	0
0	0	0
0	0	0
0	0	0
0	0	0
0	0	0
0	0	0
0	0	0
0	0	0
0	0	0
0	0	0
0	0	0
0	0	0
0	0	0
0	0	0
0	0	0
0	0	0
0	0	0
0	0	0
0	0	0
0	0	0
0	0	0
0	0	0
0	0	0
0	0	0
0	0	0
0	0	0
0	0	0
0	0	0
0	0	0
0	0	0
0	0	0
0	0	0
0	0	0
0	0	0
0	0	0
0	0	0
0	0	0
0	0	0
0	0	0
0	0	0
0	0	0
0	0	0
0	0	0
0	0	0
0	0	0
0	0	0
0	0	0
0	0	0
0	0	0
0	0	0
0	0	0
0	0	0
0	0	0
0	0	0
0	0	0
0	0	0
0	0	0
0	0	0
0	0	0
0	0	0
0	0	0
0	0	0
0	0	0
0	0	0
0	0	0
0	0	0
0	0	0
0	0	0
0	0	0
0	0	0
0	0	0
0	0	0
0	0	0
0	0	0
0	0	0
0	0	0
0	0	0
0	0	0
0	0	0
0	0	0
0	0	0
0	0	0
0	0	0
0	0	0
0	0	0
0	0	0
0	0	0
0	0	0
0	0	0
0	0	0
0	0	0
0	0	0
0	0	0
0	0	0
0	0	0
0	0	0
0	0	0
0	0	0
0	0	0
0	0	0
0	0	0
0	0	0
0	0	0
0	0	0
0	0	0
0	0	0
0	0	0
0	0	0
0	0	0
0	0	0
0	0	0
0	0	0
0	0	0
0	0	0
0	0	0
0	0	0
0	0	0
0	0	0
0	0	0
0	0	0
0	0	0
0	0	0
0	0	0
0	0	0
0	0	0
0	0	0
0	0	0
0	0	0
0	0	0
0	0	0
0	0	0
0	0	0
0	0	0
0	0	0
0	0	0
0	0	0
0	0	0
0	0	0
0	0	0
0	0	0
0	0	0
0	0	0
0	0	0
0	0	0
0	0	0
0	0	0
0	0	0
0	0	0
0	0	0
0	0	0
0	0	0
0	0	0
0	0	0
0	0	0
0	0	0
0	0	0
0	0	0
0	0	0
0	0	0
0	0	0
0	0	0
0	0	0
0	0	0
0	0	0
0	0	0
0	0	0
0	0	0
0	0	0
0	0	0
0	0	0
0	0	0
0	0	0
0	0	0
0	0	0
0	0	0
0	0	0
0	0	0
0	0	0
0	0	0
0	0	0
0	0	0
0	0	0
0	0	0
0	0	0
0	0	0
0	0	0
0	0	0
0	0	0
0	0	0
0	0	0
0	0	0
0	0	0
0	0	0
0	0	0
0	0	0
0	0	0
0	0	0
0	0	0
0	0	0
0	0	0
0	0	0
0	0	0
0	0	0
0	0	0
0	0	0
0	0	0
0	0	0
0	0	0
0	0	0
0	0	0
0	0	0
0	0	0
0	0	0
0	0	0
0	0	0
0	0	0
0	0	0
0	0	0
0	0	0
0	0	0
0	0	0
0	0	0
0	0	0
0	0	0
0	0	0
0	0	0
0	0	0
0	0	0
0	0	0
0	0	0
0	0	0
0	0	0
0	0	0
0	0	0
0	0	0
0	0	0
0	0	0
0	0	0
0	0	0
0	0	0
0	0	0
0	0	0
0	0	0
0	0	0
0	0	0
0	0	0
0	0	0
0	0	0
0	0	0
0	0	0
0	0	0
0	0	0
0	0	0
0	0	0
0	0	0
0	0	0
0	0	0
0	0	0
0	0	0
0	0	0
0	0	0
0	0	0
0	0	0
0	0	0
0	0	0
0	0	0
0	0	0
0	0	0
0	0	0
0	0	0
0	0	0
0	0	0
0	0	0
0	0	0
0	0	0
0	0	0
0	0	0
0	0	0
0	0	0
0	0	0
0	0	0
0	0	0
0	0	0
0	0	0
0	0	0
0	0	0
0	0	0
0	0	0
0	0	0
0	0	0
0	0	0
0	0	0
0	0	0
0	0	0
0	0	0
0	0	0
0	0	0
0	0	0
0	0	0
0	0	0
0	0	0
0	0	0
0	0	0
0	0	0
0	0	0
0	0	0
0	0	0
0	0	0
0	0	0
0	0	0
0	0	0
0	0	0
0	0	0
0	0	0
0	0	0
0	0	0
0	0	0
0	0	0
0	0	0
0	0	0
0	0	0
0	0	0
0	0	0
0	0	0
0	0	0
0	0	0
0	0	0
0	0	0
0	0	0
0	0	0
0	0	0
0	0	0
0	0	0
0	0	0
0	0	0
0	0	0
0	0	0
0	0	0
0	0	0
0	0	0
0	0	0
0	0	0
0	0	0
0	0	0
0	0	0
0	0	0
0	0	0
0	0	0
0	0	0
0	0	0
0	0	0
0	0	0
0	0	0
0	0	0
0	0	0
0	0	0
0	0	0
0	0	0
0	0	0
0	0	0
0	0	0
0	0	0
0	0	0
0	0	0
0	0	0
0	0	0
0	0	0
0	0	0
0	0	0
0	0	0
0	0	0
0	0	0
0	0	0
0	0	0
0	0	0
0	0	0
0	0	0
0	0	0
0	0	0
0	0	0
0	0	0
-67980000000	4257000000	0
-67650000000	4224000000	0
-67320000000	4191000000	0
-67320000000	4158000000	0
-66990000000	4125000000	0
-66990000000	4092000000	0
-66660000000	4059000000	0
-66330000000	4026000000	0
-66000000000	3960000000	0
-65670000000	3894000000	0
-65340000000	3861000000	0
-64350000000	4059000000	0
-51810000000	3017859008	0
-38610000000	2394123374	0
-25377000000	1806953377	0
-12573000000	1334269089	0
0	0	0
0	0	0
0	0	0
0	0	0
0	0	0
0	0	0
0	0	0
0	0	0
0	0	0
0	0	0
0	0	0
0	0	0
0	0	0
0	0	0
0	0	0
0	0	0
0	0	0
0	0	0
0	0	0
0	0	0
0	0	0
0	0	0
0	0	0
0	0	0
0	0	0
0	0	0
0	0	0
0	0	0
0	0	0
0	0	0
0	0	0
0	0	0
0	0	0
0	0	0
0	0	0
0	0	0
0	0	0
0	0	0
0	0	0
0	0	0
0	0	0
0	0	0
0	0	0
0	0	0
0	0	0
0	0	0
0	0	0
0	0	0
0	0	0
0	0	0
0	0	0
0	0	0
0	0	0
0	0	0
0	0	0
0	0	0
0	0	0
0	0	0
0	0	0
0	0	0
0	0	0
0	0	0
0	0	0
0	0	0
0	0	0
0	0	0
0	0	0
0	0	0
0	0	0
0	0	0
0	0	0
0	0	0
0	0	0
0	0	0
0	0	0
0	0	0
0	0	0
0	0	0
0	0	0
0	0	0
0	0	0
0	0	0
0	0	0
0	0	0
0	0	0
0	0	0
0	0	0
0	0	0
0	0	0
0	0	0
0	0	0
0	0	0
0	0	0
0	0	0
0	0	0
0	0	0
0	0	0
0	0	0
0	0	0
0	0	0
0	0	0
0	0	0
0	0	0
0	0	0
0	0	0
0	0	0
0	0	0
0	0	0
0	0	0
0	0	0
0	0	0
0	0	0
0	0	0
0	0	0
0	0	0
0	0	0
0	0	0
0	0	0
0	0	0
0	0	0
0	0	0
0	0	0
0	0	0
0	0	0
0	0	0
0	0	0
0	0	0
0	0	0
0	0	0
0	0	0
0	0	0
0	0	0
0	0	0
0	0	0
0	0	0
0	0	0
0	0	0
0	0	0
0	0	0
0	0	0
0	0	0
0	0	0
0	0	0
0	0	0
0	0	0
0	0	0
0	0	0
0	0	0
0	0	0
0	0	0
0	0	0
0	0	0
0	0	0
0	0	0
0	0	0
0	0	0
0	0	0
0	0	0
0	0	0
0	0	0
0	0	0
0	0	0
0	0	0
0	0	0
0	0	0
0	0	0
0	0	0
0	0	0
-70950000000	4422000000	0
-70620000000	4422000000	0
-70620000000	4389000000	0
-70290000000	4356000000	0
-69960000000	4323000000	0
-69960000000	4323000000	0
-69630000000	4290000000	0
-69630000000	4257000000	0
-69300000000	4257000000	0
-69300000000	4224000000	0
-68970000000	4191000000	0
-68970000000	4158000000	0
-68640000000	4158000000	0
-68310000000	4125000000	0
-68310000000	4092000000	0
-67980000000	4092000000	0
-67980000000	4059000000	0
-67650000000	4026000000	0
-67650000000	3993000000	0
-67320000000	3960000000	0
-66990000000	3927000000	0
-66990000000	3894000000	0
-66660000000	3828000000	0
-66330000000	3762000000	0
-66000000000	3663000000	0
-65670000000	3564000000	0
-65340000000	3498000000	0
-63030000000	3861000000	0
-52140000000	2920247948	0
-38940000000	2385619121	0
-25839000000	1997112281	0
-12870000000	1741853086	0
0	0	0
0	0	0
0	0	0
0	0	0
0	0	0
0	0	0
0	0	0
0	0	0
0	0	0
0	0	0
0	0	0
0	0	0
0	0	0
0	0	0
0	0	0
0	0	0
0	0	0
0	0	0
0	0	0
0	0	0
0	0	0
0	0	0
0	0	0
0	0	0
0	0	0
0	0	0
0	0	0
0	0	0
0	0	0
0	0	0
0	0	0
0	0	0
0	0	0
0	0	0
0	0	0
0	0	0
0	0	0
0	0	0
0	0	0
0	0	0
0	0	0
0	0	0
0	0	0
0	0	0
0	0	0
0	0	0
0	0	0
0	0	0
0	0	0
0	0	0
0	0	0
0	0	0
0	0	0
0	0	0
0	0	0
0	0	0
0	0	0
0	0	0
0	0	0
0	0	0
0	0	0
0	0	0
0	0	0
0	0	0
0	0	0
0	0	0
0	0	0
0	0	0
0	0	0
0	0	0
0	0	0
0	0	0
0	0	0
0	0	0
0	0	0
0	0	0
0	0	0
0	0	0
0	0	0
0	0	0
0	0	0
0	0	0
0	0	0
0	0	0
0	0	0
0	0	0
0	0	0
0	0	0
0	0	0
0	0	0
0	0	0
0	0	0
0	0	0
0	0	0
0	0	0
0	0	0
0	0	0
0	0	0
0	0	0
0	0	0
0	0	0
0	0	0
0	0	0
0	0	0
0	0	0
0	0	0
0	0	0
0	0	0
0	0	0
0	0	0
0	0	0
0	0	0
0	0	0
0	0	0
0	0	0
0	0	0
0	0	0
0	0	0
0	0	0
0	0	0
0	0	0
0	0	0
0	0	0
0	0	0
0	0	0
0	0	0
0	0	0
0	0	0
0	0	0
0	0	0
0	0	0
0	0	0
0	0	0
0	0	0
0	0	0
0	0	0
0	0	0
0	0	0
0	0	0
0	0	0
0	0	0
0	0	0
0	0	0
0	0	0
0	0	0
0	0	0
0	0	0
0	0	0
0	0	0
0	0	0
0	0	0
0	0	0
-74250000000	4620000000	0
-73920000000	4620000000	0
-73590000000	4587000000	0
-73590000000	4554000000	0
-73260000000	4521000000	0
-72930000000	4488000000	0
-72930000000	4488000000	0
-72600000000	4455000000	0
-72600000000	4422000000	0
-72270000000	4389000000	0
-71940000000	4389000000	0
-71940000000	4356000000	0
-71610000000	4323000000	0
-71610000000	4323000000	0
-71280000000	4290000000	0
-70950000000	4257000000	0
-70950000000	4224000000	0
-70620000000	4224000000	0
-70620000000	4191000000	0
-70290000000	4158000000	0
-70290000000	4158000000	0
-69960000000	4125000000	0
-69630000000	4092000000	0
-69630000000	4092000000	0
-69300000000	4059000000	0
-69300000000	4026000000	0
-68970000000	4026000000	0
-68970000000	3993000000	0
-68640000000	3960000000	0
-68640000000	3927000000	0
-68310000000	3927000000	0
-67980000000	3894000000	0
-67980000000	3861000000	0
-67650000000	3828000000	0
-67650000000	3795000000	0
-67320000000	3762000000	0
-66990000000	3729000000	0
-66990000000	3663000000	0
-66660000000	3597000000	0
-66330000000	3498000000	0
-66330000000	3399000000	0
-66000000000	3216378071	0
-65670000000	2939994173	0
-65010000000	2520722284	0
-52800000000	2431572690	0
-39270000000	2318402216	0
-26103000000	2111869889	0
-13002000000	1971599855	0
0	0	0
0	0	0
0	0	0
0	0	0
0	0	0
0	0	0
0	0	0
0	0	0
0	0	0
0	0	0
0	0	0
0	0	0
0	0	0
0	0	0
0	0	0
0	0	0
0	0	0
0	0	0
0	0	0
0	0	0
0	0	0
0	0	0
0	0	0
0	0	0
0	0	0
0	0	0
0	0	0
0	0	0
0	0	0
0	0	0
0	0	0
0	0	0
0	0	0
0	0	0
0	0	0
0	0	0
0	0	0
0	0	0
0	0	0
0	0	0
0	0	0
0	0	0
0	0	0
0	0	0
0	0	0
0	0	0
0	0	0
0	0	0
0	0	0
0	0	0
0	0	0
0	0	0
0	0	0
0	0	0
0	0	0
0	0	0
0	0	0
0	0	0
0	0	0
0	0	0
0	0	0
0	0	0
0	0	0
0	0	0
0	0	0
0	0	0
0	0	0
0	0	0
0	0	0
0	0	0
0	0	0
0	0	0
0	0	0
0	0	0
0	0	0
0	0	0
0	0	0
0	0	0
0	0	0
0	0	0
0	0	0
0	0	0
0	0	0
0	0	0
0	0	0
0	0	0
0	0	0
0	0	0
0	0	0
0	0	0
0	0	0
0	0	0
0	0	0
0	0	0
0	0	0
0	0	0
0	0	0
0	0	0
0	0	0
0	0	0
0	0	0
0	0	0
0	0	0
0	0	0
0	0	0
0	0	0
0	0	0
0	0	0
0	0	0
0	0	0
0	0	0
0	0	0
0	0	0
0	0	0
0	0	0
0	0	0
0	0	0
0	0	0
0	0	0
0	0	0
0	0	0
0	0	0
0	0	0
0	0	0
0	0	0
0	0	0
0	0	0
0	0	0
0	0	0
0	0	0
0	0	0
0	0	0
0	0	0
0	0	0
0	0	0
0	0	0
-77550000000	4851000000	0
-77550000000	4818000000	0
-77220000000	4785000000	0
-76890000000	4752000000	0
-76560000000	4752000000	0
-76560000000	4719000000	0
-76230000000	4686000000	0
-75900000000	4653000000	0
-75900000000	4620000000	0
-75570000000	4587000000	0
-75240000000	4587000000	0
-75240000000	4554000000	0
-74910000000	4521000000	0
-74910000000	4488000000	0
-74580000000	4488000000	0
-74250000000	4455000000	0
-74250000000	4422000000	0
-73920000000	4389000000	0
-73590000000	4356000000	0
-73590000000	4356000000	0
-73260000000	4323000000	0
-72930000000	4290000000	0
-72930000000	4290000000	0
-72600000000	4257000000	0
-72600000000	4224000000	0
-72270000000	4191000000	0
-71940000000	4191000000	0
-71940000000	4158000000	0
-71610000000	4125000000	0
-71610000000	4125000000	0
-71280000000	4092000000	0
-70950000000	4059000000	0
-70950000000	4059000000	0
-70620000000	4026000000	0
-70620000000	3993000000	0
-70290000000	3993000000	0
-70290000000	3960000000	0
-69960000000	3927000000	0
-69630000000	3927000000	0
-69630000000	3894000000	0
-69300000000	3861000000	0
-69300000000	3861000000	0
-68970000000	3828000000	0
-68970000000	3795000000	0
-68640000000	3795000000	0
-68640000000	3762000000	0
-68310000000	3729000000	0
-67980000000	3696000000	0
-67980000000	3663000000	0
-67650000000	3630000000	0
-67650000000	3597000000	0
-67320000000	3564000000	0
-67320000000	3531000000	0
-66990000000	3465000000	0
-66660000000	3366000000	0
-66660000000	3275666639	0
-66330000000	3141190049	0
-66330000000	2953394046	0
-66000000000	2699377543	0
-65010000000	2331077639	0
-52800000000	2420206966	0
-39600000000	2249765728	0
-26235000000	2155098011	0
-13101000000	2067474653	0
0	0	0
0	0	0
0	0	0
0	0	0
0	0	0
0	0	0
0	0	0
0	0	0
0	0	0
0	0	0
0	0	0
0	0	0
0	0	0
0	0	0
0	0	0
0	0	0
0	0	0
0	0	0
0	0	0
0	0	0
0	0	0
0	0	0
0	0	0
0	0	0
0	0	0
0	0	0
0	0	0
0	0	0
0	0	0
0	0	0
0	0	0
0	0	0
0	0	0
0	0	0
0	0	0
0	0	0
0	0	0
0	0	0
0	0	0
0	0	0
0	0	0
0	0	0
0	0	0
0	0	0
0	0	0
0	0	0
0	0	0
0	0	0
0	0	0
0	0	0
0	0	0
0	0	0
0	0	0
0	0	0
0	0	0
0	0	0
0	0	0
0	0	0
0	0	0
0	0	0
0	0	0
0	0	0
0	0	0
0	0	0
0	0	0
0	0	0
0	0	0
0	0	0
0	0	0
0	0	0
0	0	0
0	0	0
0	0	0
0	0	0
0	0	0
0	0	0
0	0	0
0	0	0
0	0	0
0	0	0
0	0	0
0	0	0
0	0	0
0	0	0
0	0	0
0	0	0
0	0	0
0	0	0
0	0	0
0	0	0
0	0	0
0	0	0
0	0	0
0	0	0
0	0	0
0	0	0
0	0	0
0	0	0
0	0	0
0	0	0
0	0	0
0	0	0
0	0	0
0	0	0
0	0	0
0	0	0
0	0	0
0	0	0
0	0	0
0	0	0
0	0	0
0	0	0
0	0	0
0	0	0
0	0	0
0	0	0
0	0	0
0	0	0
0	0	0
0	0	0
-81510000000	5082000000	0
-81180000000	5049000000	0
-80850000000	5016000000	0
-80850000000	5016000000	0
-80520000000	4983000000	0
-80190000000	4950000000	0
-79860000000	4917000000	0
-79860000000	4884000000	0
-79530000000	4851000000	0
-79200000000	4818000000	0
-79200000000	4785000000	0
-78870000000	4752000000	0
-78540000000	4719000000	0
-78210000000	4719000000	0
-78210000000	4686000000	0
-77880000000	4653000000	0
-77550000000	4620000000	0
-77550000000	4587000000	0
-77220000000	4554000000	0
-76890000000	4554000000	0
-76890000000	4521000000	0
-76560000000	4488000000	0
-76230000000	4455000000	0
-76230000000	4422000000	0
-75900000000	4422000000	0
-75570000000	4389000000	0
-75570000000	4356000000	0
-75240000000	4323000000	0
-74910000000	4323000000	0
-74910000000	4290000000	0
-74580000000	4257000000	0
-74250000000	4224000000	0
-74250000000	4224000000	0
-73920000000	4191000000	0
-73590000000	4158000000	0
-73590000000	4158000000	0
-73260000000	4125000000	0
-73260000000	4092000000	0
-72930000000	4059000000	0
-72600000000	4059000000	0
-72600000000	4026000000	0
-72270000000	3993000000	0
-72270000000	3993000000	0
-71940000000	3960000000	0
-71610000000	3927000000	0
-71610000000	3927000000	0
-71280000000	3894000000	0
-71280000000	3861000000	0
-70950000000	3861000000	0
-70620000000	3828000000	0
-70620000000	3828000000	0
-70290000000	3795000000	0
-70290000000	3762000000	0
-69960000000	3762000000	0
-69960000000	3729000000	0
-69630000000	3696000000	0
-69300000000	3696000000	0
-69300000000	3663000000	0
-68970000000	3663000000	0
-68970000000	3630000000	0
-68640000000	3597000000	0
-68640000000	3564000000	0
-68310000000	3564000000	0
-68310000000	3531000000	0
-67980000000	3498000000	0
-67650000000	3465000000	0
-67650000000	3432000000	0
-67320000000	3366000000	0
-67320000000	3333000000	0
-66990000000	3261373062	0
-66990000000	3186816953	0
-66660000000	3084461043	0
-66660000000	2951397638	0
-66330000000	2747606506	0
-66330000000	2530650578	0
-64680000000	1976856455	0
-52800000000	2220015423	0
-39600000000	2209263279	0
-26301000000	2180734730	0
-13134000000	2140352894	0
0	0	0
0	0	0
0	0	0
0	0	0
0	0	0
0	0	0
0	0	0
0	0	0
0	0	0
0	0	0
0	0	0
0	0	0
0	0	0
0	0	0
0	0	0
0	0	0
0	0	0
0	0	0
0	0	0
0	0	0
0	0	0
0	0	0
0	0	0
0	0	0
0	0	0
0	0	0
0	0	0
0	0	0
0	0	0
0	0	0
0	0	0
0	0	0
0	0	0
0	0	0
0	0	0
0	0	0
0	0	0
0	0	0
0	0	0
0	0	0
0	0	0
0	0	0
0	0	0
0	0	0
0	0	0
0	0	0
0	0	0
0	0	0
0	0	0
0	0	0
0	0	0
0	0	0
0	0	0
0	0	0
0	0	0
0	0	0
0	0	0
0	0	0
0	0	0
0	0	0
0	0	0
0	0	0
0	0	0
0	0	0
0	0	0
0	0	0
0	0	0
0	0	0
0	0	0
0	0	0
0	0	0
0	0	0
0	0	0
0	0	0
0	0	0
0	0	0
0	0	0
0	0	0
0	0	0
0	0	0
0	0	0
0	0	0
0	0	0
0	0	0
0	0	0
0	0	0
0	0	0
0	0	0
0	0	0
0	0	0
0	0	0
0	0	0
0	0	0
0	0	0
0	0	0
0	0	0
0	0	0
0	0	0
0	0	0
0	0	0
0	0	0
0	0	0
0	0	0
0	0	0
-85800000000	5346000000	0
-85470000000	5313000000	0
-85140000000	5280000000	0
-84810000000	5247000000	0
-84810000000	5214000000	0
-84480000000	5181000000	0
-84150000000	5148000000	0
-83820000000	5115000000	0
-83490000000	5082000000	0
-83490000000	5049000000	0
-83160000000	5016000000	0
-82830000000	4983000000	0
-82500000000	4950000000	0
-82170000000	4917000000	0
-82170000000	4917000000	0
-81840000000	4884000000	0
-81510000000	4851000000	0
-81180000000	4818000000	0
-81180000000	4785000000	0
-80850000000	4752000000	0
-80520000000	4719000000	0
-80190000000	4686000000	0
-80190000000	4653000000	0
-79860000000	4620000000	0
-79530000000	4620000000	0
-79200000000	4587000000	0
-79200000000	4554000000	0
-78870000000	4521000000	0
-78540000000	4488000000	0
-78210000000	4488000000	0
-78210000000	4455000000	0
-77880000000	4422000000	0
-77550000000	4389000000	0
-77550000000	4356000000	0
-77220000000	4356000000	0
-76890000000	4323000000	0
-76890000000	4290000000	0
-76560000000	4257000000	0
-76230000000	4224000000	0
-76230000000	4224000000	0
-75900000000	4191000000	0
-75570000000	4158000000	0
-75570000000	4158000000	0
-75240000000	4125000000	0
-74910000000	4092000000	0
-74910000000	4059000000	0
-74580000000	4059000000	0
-74250000000	4026000000	0
-74250000000	3993000000	0
-73920000000	3993000000	0
-73590000000	3960000000	0
-73590000000	3927000000	0
-73260000000	3927000000	0
-73260000000	3894000000	0
-72930000000	3861000000	0
-72600000000	3861000000	0
-72600000000	3828000000	0
-72270000000	3795000000	0
-72270000000	3795000000	0
-71940000000	3762000000	0
-71610000000	3729000000	0
-71610000000	3729000000	0
-71280000000	3696000000	0
-71280000000	3696000000	0
-70950000000	3663000000	0
-70620000000	3630000000	0
-70620000000	3630000000	0
-70290000000	3597000000	0
-70290000000	3597000000	0
-69960000000	3564000000	0
-69960000000	3531000000	0
-69630000000	3531000000	0
-69300000000	3498000000	0
-69300000000	3498000000	0
-68970000000	3465000000	0
-68970000000	3432000000	0
-68640000000	3432000000	0
-68640000000	3399000000	0
-68310000000	3366000000	0
-68310000000	3333000000	0
-67980000000	3333000000	0
-67980000000	3284824836	0
-67650000000	3247743543	0
-67650000000	3204264991	0
-67320000000	3155476444	0
-66990000000	3092079175	0
-66990000000	3014990511	0
-66990000000	2920609711	0
-66660000000	2809971110	0
-66660000000	2671841066	0
-66660000000	2416799748	0
-64680000000	2525882263	0
-52800000000	2342942765	0
-39600000000	2241876419	0
-26334000000	2207787472	0
-13167000000	2178729661	0
0	0	0
0	0	0
0	0	0
0	0	0
0	0	0
0	0	0
0	0	0
0	0	0
0	0	0
0	0	0
0	0	0
0	0	0
0	0	0
0	0	0
0	0	0
0	0	0
0	0	0
0	0	0
0	0	0
0	0	0
0	0	0
0	0	0
0	0	0
0	0	0
0	0	0
0	0	0
0	0	0
0	0	0
0	0	0
0	0	0
0	0	0
0	0	0
0	0	0
0	0	0
0	0	0
0	0	0
0	0	0
0	0	0
0	0	0
0	0	0
0	0	0
0	0	0
0	0	0
0	0	0
0	0	0
0	0	0
0	0	0
0	0	0
0	0	0
0	0	0
0	0	0
0	0	0
0	0	0
0	0	0
0	0	0
0	0	0
0	0	0
0	0	0
0	0	0
0	0	0
0	0	0
0	0	0
0	0	0
0	0	0
0	0	0
0	0	0
0	0	0
0	0	0
0	0	0
0	0	0
0	0	0
0	0	0
0	0	0
0	0	0
0	0	0
0	0	0
0	0	0
0	0	0
0	0	0
0	0	0
0	0	0
0	0	0
0	0	0
0	0	0
0	0	0
0	0	0
0	0	0
0	0	0
-90420000000	5676000000	0
-90090000000	5610000000	0
-90090000000	5577000000	0
-89760000000	5544000000	0
-89430000000	5511000000	0
-89100000000	5478000000	0
-88770000000	5445000000	0
-88440000000	5379000000	0
-88110000000	5346000000	0
-87780000000	5313000000	0
-87450000000	5280000000	0
-87120000000	5247000000	0
-87120000000	5214000000	0
-86790000000	5181000000	0
-86460000000	5148000000	0
-86130000000	5115000000	0
-85800000000	5082000000	0
-85470000000	5049000000	0
-85140000000	5016000000	0
-85140000000	4983000000	0
-84810000000	4950000000	0
-84480000000	4917000000	0
-84150000000	4884000000	0
-83820000000	4851000000	0
-83490000000	4818000000	0
-83490000000	4785000000	0
-83160000000	4752000000	0
-82830000000	4719000000	0
-82500000000	4719000000	0
-82170000000	4686000000	0
-82170000000	4653000000	0
-81840000000	4620000000	0
-81510000000	4587000000	0
-81180000000	4554000000	0
-81180000000	4521000000	0
-80850000000	4488000000	0
-80520000000	4488000000	0
-80190000000	4455000000	0
-80190000000	4422000000	0
-79860000000	4389000000	0
-79530000000	4356000000	0
-79200000000	4356000000	0
-79200000000	4323000000	0
-78870000000	4290000000	0
-78540000000	4257000000	0
-78540000000	4224000000	0
-78210000000	4224000000	0
-77880000000	4191000000	0
-77550000000	4158000000	0
-77550000000	4125000000	0
-77220000000	4125000000	0
-76890000000	4092000000	0
-76890000000	4059000000	0
-76560000000	4026000000	0
-76230000000	4026000000	0
-76230000000	3993000000	0
-75900000000	3960000000	0
-75570000000	3960000000	0
-75570000000	3927000000	0
-75240000000	3894000000	0
-74910000000	3894000000	0
-74910000000	3861000000	0
-74580000000	3828000000	0
-74250000000	3828000000	0
-74250000000	3795000000	0
-73920000000	3762000000	0
-73920000000	3762000000	0
-73590000000	3729000000	0
-73260000000	3696000000	0
-73260000000	3696000000	0
-72930000000	3663000000	0
-72600000000	3663000000	0
-72600000000	3630000000	0
-72270000000	3597000000	0
-72270000000	3597000000	0
-71940000000	3564000000	0
-71610000000	3564000000	0
-71610000000	3531000000	0
-71280000000	3498000000	0
-71280000000	3498000000	0
-70950000000	3465000000	0
-70950000000	3465000000	0
-70620000000	3432000000	0
-70290000000	3432000000	0
-70290000000	3399000000	0
-69960000000	3366000000	0
-69960000000	3366000000	0
-69630000000	3333000000	0
-69630000000	3333000000	0
-69300000000	3300000000	0
-68970000000	3282760075	0
-68970000000	3262504796	0
-68640000000	3241127749	0
-68640000000	3219023432	0
-68310000000	3195058062	0
-68310000000	3169517240	0
-67980000000	3141897267	0
-67980000000	3110423443	0
-67650000000	3076342598	0
-67650000000	3035107436	0
-67320000000	2988758599	0
-67320000000	2935577585	0
-66990000000	2866547856	0
-66990000000	2789350797	0
-66660000000	2695590106	0
-66660000000	2561144217	0
-66660000000	2463464193	0
-66000000000	2326051532	0
-52800000000	2305991392	0
-39600000000	2260076588	0
-26367000000	2223618809	0
-13200000000	2200847701	0
0	0	0
0	0	0
0	0	0
0	0	0
0	0	0
0	0	0
0	0	0
0	0	0
0	0	0
0	0	0
0	0	0
0	0	0
0	0	0
0	0	0
0	0	0
0	0	0
0	0	0
0	0	0
0	0	0
0	0	0
0	0	0
0	0	0
0	0	0
0	0	0
0	0	0
0	0	0
0	0	0
0	0	0
0	0	0
0	0	0
0	0	0
0	0	0
0	0	0
0	0	0
0	0	0
0	0	0
0	0	0
0	0	0
0	0	0
0	0	0
0	0	0
0	0	0
0	0	0
0	0	0
0	0	0
0	0	0
0	0	0
0	0	0
0	0	0
0	0	0
0	0	0
0	0	0
0	0	0
0	0	0
0	0	0
0	0	0
0	0	0
0	0	0
0	0	0
0	0	0
0	0	0
0	0	0
0	0	0
0	0	0
0	0	0
0	0	0
0	0	0
0	0	0
0	0	0
0	0	0
0	0	0
0	0	0
-96030000000	6006000000	0
-95370000000	5940000000	0
-95040000000	5907000000	0
-94710000000	5874000000	0
-94380000000	5808000000	0
-94050000000	5775000000	0
-93720000000	5742000000	0
-93390000000	5709000000	0
-93060000000	5643000000	0
-92730000000	5610000000	0
-92400000000	5577000000	0
-92070000000	5544000000	0
-91740000000	5511000000	0
-91410000000	5445000000	0
-91080000000	5412000000	0
-90750000000	5379000000	0
-90750000000	5346000000	0
-90420000000	5313000000	0
-90090000000	5280000000	0
-89760000000	5247000000	0
-89430000000	5214000000	0
-89100000000	5181000000	0
-88770000000	5148000000	0
-88440000000	5082000000	0
-88110000000	5049000000	0
-87780000000	5016000000	0
-87450000000	4983000000	0
-87120000000	4950000000	0
-87120000000	4917000000	0
-86790000000	4884000000	0
-86460000000	4851000000	0
-86130000000	4818000000	0
-85800000000	4785000000	0
-85470000000	4785000000	0
-85140000000	4752000000	0
-85140000000	4719000000	0
-84810000000	4686000000	0
-84480000000	4653000000	0
-84150000000	4620000000	0
-83820000000	4587000000	0
-83820000000	4554000000	0
-83490000000	4521000000	0
-83160000000	4488000000	0
-82830000000	4488000000	0
-82500000000	4455000000	0
-82500000000	4422000000	0
-82170000000	4389000000	0
-81840000000	4356000000	0
-81510000000	4323000000	0
-81180000000	4323000000	0
-81180000000	4290000000	0
-80850000000	4257000000	0
-80520000000	4224000000	0
-80190000000	4191000000	0
-80190000000	4191000000	0
-79860000000	4158000000	0
-79530000000	4125000000	0
-79200000000	4092000000	0
-79200000000	4092000000	0
-78870000000	4059000000	0
-78540000000	4026000000	0
-78540000000	3993000000	0
-78210000000	3993000000	0
-77880000000	3960000000	0
-77880000000	3927000000	0
-77550000000	3894000000	0
-77220000000	3894000000	0
-76890000000	3861000000	0
-76890000000	3828000000	0
-76560000000	3828000000	0
-76230000000	3795000000	0
-76230000000	3762000000	0
-75900000000	3762000000	0
-75570000000	3729000000	0
-75570000000	3696000000	0
-75240000000	3696000000	0
-74910000000	3663000000	0
-74910000000	3630000000	0
-74580000000	3630000000	0
-74580000000	3597000000	0
-74250000000	3597000000	0
-73920000000	3564000000	0
-73920000000	3531000000	0
-73590000000	3531000000	0
-73260000000	3498000000	0
-73260000000	3498000000	0
-72930000000	3465000000	0
-72930000000	3432000000	0
-72600000000	3432000000	0
-72270000000	3399000000	0
-72270000000	3399000000	0
-71940000000	3366000000	0
-71610000000	3366000000	0
-71610000000	3333000000	0
-71280000000	3333000000	0
-71280000000	3299332877	0
-70950000000	3281382448	0
-70950000000	3263393995	0
-70620000000	3245707348	0
-70290000000	3227909160	0
-70290000000	3210329814	0
-69960000000	3192662201	0
-69960000000	3174550698	0
-69630000000	3156999913	0
-69630000000	3138601301	0
-69300000000	3120296859	0
-68970000000	3101424375	0
-68970000000	3082264636	0
-68640000000	3062399337	0
-68640000000	3040983645	0
-68310000000	3018509783	0
-68310000000	2994844982	0
-67980000000	2968869557	0
-67980000000	2940691011	0
-67650000000	2908909770	0
-67650000000	2873142983	0
-67320000000	2832696272	0
-67320000000	2784771074	0
-66990000000	2731516898	0
-66990000000	2668992162	0
-66990000000	2602741265	0
-66660000000	2525033372	0
-66990000000	2135630365	0
-65670000000	2836341193	0
-52800000000	2252537573	0
-39600000000	2262111236	0
-26400000000	2230996894	0
-13200000000	2210037809	0
0	0	0
0	0	0
0	0	0
0	0	0
0	0	0
0	0	0
0	0	0
0	0	0
0	0	0
0	0	0
0	0	0
0	0	0
0	0	0
0	0	0
0	0	0
0	0	0
0	0	0
0	0	0
0	0	0
0	0	0
0	0	0
0	0	0
0	0	0
0	0	0
0	0	0
0	0	0
0	0	0
0	0	0
0	0	0
0	0	0
0	0	0
0	0	0
0	0	0
0	0	0
0	0	0
0	0	0
0	0	0
0	0	0
0	0	0
0	0	0
0	0	0
0	0	0
0	0	0
0	0	0
0	0	0
0	0	0
0	0	0
0	0	0
0	0	0
0	0	0
0	0	0
0	0	0
0	0	0
0	0	0
0	0	0
0	0	0
-1.0197E+11	6369000000	0
-1.0164E+11	6303000000	0
-1.0098E+11	6270000000	0
-1.0065E+11	6204000000	0
-1.0032E+11	6171000000	0
-99990000000	6138000000	0
-99660000000	6072000000	0
-99330000000	6039000000	0
-98670000000	5973000000	0
-98340000000	5940000000	0
-98010000000	5907000000	0
-97680000000	5841000000	0
-97350000000	5808000000	0
-97020000000	5775000000	0
-96690000000	5742000000	0
-96360000000	5676000000	0
-96030000000	5643000000	0
-95700000000	5610000000	0
-95370000000	5577000000	0
-95040000000	5511000000	0
-94380000000	5478000000	0
-94050000000	5445000000	0
-93720000000	5412000000	0
-93390000000	5379000000	0
-93060000000	5313000000	0
-92730000000	5280000000	0
-92400000000	5247000000	0
-92070000000	5214000000	0
-91740000000	5181000000	0
-91410000000	5148000000	0
-91410000000	5115000000	0
-91080000000	5082000000	0
-90750000000	5049000000	0
-90420000000	5016000000	0
-90090000000	4950000000	0
-89760000000	4917000000	0
-89430000000	4884000000	0
-89100000000	4851000000	0
-88770000000	4818000000	0
-88440000000	4785000000	0
-88110000000	4752000000	0
-87780000000	4719000000	0
-87450000000	4719000000	0
-87450000000	4686000000	0
-87120000000	4653000000	0
-86790000000	4620000000	0
-86460000000	4587000000	0
-86130000000	4554000000	0
-85800000000	4521000000	0
-85470000000	4488000000	0
-85470000000	4455000000	0
-85140000000	4422000000	0
-84810000000	4389000000	0
-84480000000	4389000000	0
-84150000000	4356000000	0
-83820000000	4323000000	0
-83820000000	4290000000	0
-83490000000	4257000000	0
-83160000000	4224000000	0
-82830000000	4224000000	0
-82500000000	4191000000	0
-82500000000	4158000000	0
-82170000000	4125000000	0
-81840000000	4092000000	0
-81510000000	4092000000	0
-81510000000	4059000000	0
-81180000000	4026000000	0
-80850000000	3993000000	0
-80520000000	3993000000	0
-80520000000	3960000000	0
-80190000000	3927000000	0
-79860000000	3894000000	0
-79530000000	3894000000	0
-79530000000	3861000000	0
-79200000000	3828000000	0
-78870000000	3828000000	0
-78540000000	3795000000	0
-78540000000	3762000000	0
-78210000000	3762000000	0
-77880000000	3729000000	0
-77880000000	3696000000	0
-77550000000	3696000000	0
-77220000000	3663000000	0
-77220000000	3630000000	0
-76890000000	3630000000	0
-76560000000	3597000000	0
-76230000000	3564000000	0
-76230000000	3564000000	0
-75900000000	3531000000	0
-75570000000	3498000000	0
-75570000000	3498000000	0
-75240000000	3465000000	0
-74910000000	3465000000	0
-74910000000	3432000000	0
-74580000000	3399000000	0
-74580000000	3399000000	0
-74250000000	3366000000	0
-73920000000	3366000000	0
-73920000000	3333000000	0
-73590000000	3333000000	0
-73260000000	3300000000	0
-73260000000	3281673598	0
-72930000000	3263633456	0
-72930000000	3245570227	0
-72600000000	3227702854	0
-72270000000	3209998625	0
-72270000000	3192351699	0
-71940000000	3175034659	0
-71940000000	3157665582	0
-71610000000	3140241171	0
-71280000000	3123637949	0
-71280000000	3106302267	0
-70950000000	3089525649	0
-70950000000	3072918043	0
-70620000000	3056268587	0
-70290000000	3039171983	0
-70290000000	3022817714	0
-69960000000	3006065669	0
-69960000000	2989472775	0
-69630000000	2972570753	0
-69630000000	2955649589	0
-69300000000	2938884674	0
-69300000000	2920711646	0
-68970000000	2902907034	0
-68640000000	2884186062	0
-68640000000	2864520407	0
-68310000000	2844322457	0
-68310000000	2822274560	0
-67980000000	2799250626	0
-67980000000	2772894339	0
-67650000000	2745454589	0
-67650000000	2715315272	0
-67320000000	2679699637	0
-67320000000	2643327536	0
-67320000000	2601391474	0
-66990000000	2556025131	0
-66990000000	2511126210	0
-66990000000	2491037471	0
-66660000000	2497268620	0
-65670000000	2086927199	0
-52800000000	2466481991	0
-39600000000	2202017186	0
-26433000000	2227851744	0
-13200000000	2202398401	0
0	0	0
0	0	0
0	0	0
0	0	0
0	0	0
0	0	0
0	0	0
0	0	0
0	0	0
0	0	0
0	0	0
0	0	0
0	0	0
0	0	0
0	0	0
0	0	0
0	0	0
0	0	0
0	0	0
0	0	0
0	0	0
0	0	0
0	0	0
0	0	0
0	0	0
0	0	0
0	0	0
0	0	0
0	0	0
0	0	0
0	0	0
0	0	0
0	0	0
0	0	0
0	0	0
0	0	0
0	0	0
0	0	0
0	0	0
0	0	0
-1.0857E+11	6798000000	0
-1.0824E+11	6732000000	0
-1.0791E+11	6666000000	0
-1.0725E+11	6633000000	0
-1.0692E+11	6567000000	0
-1.0659E+11	6534000000	0
-1.0593E+11	6468000000	0
-1.056E+11	6402000000	0
-1.0527E+11	6369000000	0
-1.0461E+11	6303000000	0
-1.0428E+11	6270000000	0
-1.0395E+11	6204000000	0
-1.0362E+11	6171000000	0
-1.0296E+11	6105000000	0
-1.0263E+11	6072000000	0
-1.023E+11	6006000000	0
-1.0197E+11	5973000000	0
-1.0164E+11	5940000000	0
-1.0098E+11	5874000000	0
-1.0065E+11	5841000000	0
-1.0032E+11	5775000000	0
-99990000000	5742000000	0
-99660000000	5709000000	0
-99330000000	5643000000	0
-99000000000	5610000000	0
-98340000000	5577000000	0
-98010000000	5544000000	0
-97680000000	5478000000	0
-97350000000	5445000000	0
-97020000000	5412000000	0
-96690000000	5379000000	0
-96360000000	5346000000	0
-96030000000	5280000000	0
-95700000000	5247000000	0
-95370000000	5214000000	0
-95040000000	5181000000	0
-94710000000	5148000000	0
-94380000000	5115000000	0
-94050000000	5082000000	0
-93720000000	5016000000	0
-93390000000	4983000000	0
-93060000000	4950000000	0
-92730000000	4917000000	0
-92400000000	4884000000	0
-92070000000	4851000000	0
-91740000000	4818000000	0
-91410000000	4785000000	0
-91080000000	4752000000	0
-90750000000	4719000000	0
-90420000000	4686000000	0
-90090000000	4653000000	0
-89760000000	4620000000	0
-89430000000	4587000000	0
-89100000000	4554000000	0
-88770000000	4521000000	0
-88440000000	4488000000	0
-88110000000	4455000000	0
-87780000000	4455000000	0
-87780000000	4422000000	0
-87450000000	4389000000	0
-87120000000	4356000000	0
-86790000000	4323000000	0
-86460000000	4290000000	0
-86130000000	4257000000	0
-85800000000	4224000000	0
-85470000000	4224000000	0
-85470000000	4191000000	0
-85140000000	4158000000	0
-84810000000	4125000000	0
-84480000000	4092000000	0
-84150000000	4092000000	0
-84150000000	4059000000	0
-83820000000	4026000000	0
-83490000000	3993000000	0
-83160000000	3960000000	0
-82830000000	3960000000	0
-82500000000	3927000000	0
-82500000000	3894000000	0
-82170000000	3861000000	0
-81840000000	3861000000	0
-81510000000	3828000000	0
-81510000000	3795000000	0
-81180000000	3795000000	0
-80850000000	3762000000	0
-80520000000	3729000000	0
-80520000000	3696000000	0
-80190000000	3696000000	0
-79860000000	3663000000	0
-79530000000	3630000000	0
-79530000000	3630000000	0
-79200000000	3597000000	0
-78870000000	3564000000	0
-78540000000	3564000000	0
-78540000000	3531000000	0
-78210000000	3498000000	0
-77880000000	3498000000	0
-77880000000	3465000000	0
-77550000000	3465000000	0
-77220000000	3432000000	0
-77220000000	3399000000	0
-76890000000	3399000000	0
-76560000000	3366000000	0
-76560000000	3366000000	0
-76230000000	3333000000	0
-75900000000	3300000000	0
-75900000000	3293866295	0
-75570000000	3275040703	0
-75240000000	3256384628	0
-75240000000	3238143382	0
-74910000000	3219206130	0
-74580000000	3201026783	0
-74580000000	3182995165	0
-74250000000	3165135962	0
-73920000000	3147172955	0