# OOMMF OVF 2.0
# Segment count: 1
# Begin: Segment
# Begin: Header
# valuedim: 3
# Title: Current Density Field
# meshtype: rectangular
# meshunit: m
# xmin: -200e-9
# ymin: -50e-9
# zmin: 0.0
# xmax: 200e-9
# ymax: 50e-9
# zmax: 0.0
# xbase: -200e-9
# ybase: -50e-9
# zbase: 0
# xnodes: 200
# ynodes: 50
# znodes: 1
# xstepsize: 2e-9
# ystepsize: 2e-9
# zstepsize: 1e-9
# End: header
# Begin: Data text
0	0	0
0	0	0
0	0	0
0	0	0
0	0	0
0	0	0
0	0	0
0	0	0
0	0	0
0	0	0
0	0	0
0	0	0
0	0	0
0	0	0
0	0	0
0	0	0
0	0	0
0	0	0
0	0	0
0	0	0
0	0	0
0	0	0
0	0	0
0	0	0
0	0	0
0	0	0
0	0	0
0	0	0
0	0	0
0	0	0
0	0	0
0	0	0
0	0	0
0	0	0
0	0	0
0	0	0
0	0	0
0	0	0
0	0	0
0	0	0
0	0	0
0	0	0
0	0	0
0	0	0
0	0	0
0	0	0
0	0	0
0	0	0
0	0	0
0	0	0
0	0	0
0	0	0
0	0	0
0	0	0
0	0	0
0	0	0
0	0	0
0	0	0
0	0	0
0	0	0
0	0	0
0	0	0
0	0	0
0	0	0
0	0	0
0	0	0
0	0	0
0	0	0
0	0	0
0	0	0
0	0	0
0	0	0
0	0	0
0	0	0
0	0	0
0	0	0
0	0	0
0	0	0
0	0	0
0	0	0
0	0	0
0	0	0
0	0	0
0	0	0
0	0	0
0	0	0
0	0	0
0	0	0
0	0	0
0	0	0
0	0	0
0	0	0
0	0	0
0	0	0
0	0	0
0	0	0
0	0	0
0	0	0
0	0	0
0	0	0
0	0	0
0	0	0
0	0	0
0	0	0
0	0	0
0	0	0
0	0	0
0	0	0
0	0	0
0	0	0
0	0	0
0	0	0
0	0	0
0	0	0
0	0	0
0	0	0
0	0	0
0	0	0
0	0	0
0	0	0
0	0	0
0	0	0
0	0	0
0	0	0
0	0	0
0	0	0
0	0	0
0	0	0
0	0	0
0	0	0
0	0	0
0	0	0
0	0	0
0	0	0
0	0	0
0	0	0
0	0	0
0	0	0
0	0	0
0	0	0
0	0	0
0	0	0
0	0	0
0	0	0
0	0	0
0	0	0
0	0	0
0	0	0
0	0	0
0	0	0
0	0	0
0	0	0
0	0	0
0	0	0
0	0	0
0	0	0
0	0	0
0	0	0
0	0	0
0	0	0
0	0	0
0	0	0
0	0	0
0	0	0
0	0	0
0	0	0
0	0	0
0	0	0
0	0	0
0	0	0
0	0	0
0	0	0
0	0	0
0	0	0
0	0	0
0	0	0
0	0	0
0	0	0
0	0	0
0	0	0
0	0	0
0	0	0
0	0	0
0	0	0
0	0	0
0	0	0
0	0	0
0	0	0
0	0	0
0	0	0
0	0	0
0	0	0
0	0	0
0	0	0
0	0	0
0	0	0
0	0	0
0	0	0
0	0	0
0	0	0
0	0	0
0	0	0
0	0	0
0	0	0
0	0	0
0	0	0
0	0	0
0	0	0
0	0	0
0	0	0
0	0	0
0	0	0
0	0	0
0	0	0
0	0	0
0	0	0
0	0	0
0	0	0
0	0	0
0	0	0
0	0	0
0	0	0
0	0	0
0	0	0
0	0	0
0	0	0
0	0	0
0	0	0
0	0	0
0	0	0
0	0	0
0	0	0
0	0	0
0	0	0
0	0	0
0	0	0
0	0	0
0	0	0
0	0	0
0	0	0
0	0	0
0	0	0
0	0	0
0	0	0
0	0	0
0	0	0
0	0	0
0	0	0
0	0	0
0	0	0
0	0	0
0	0	0
0	0	0
0	0	0
0	0	0
0	0	0
0	0	0
0	0	0
0	0	0
0	0	0
0	0	0
0	0	0
0	0	0
0	0	0
0	0	0
0	0	0
0	0	0
0	0	0
0	0	0
0	0	0
0	0	0
0	0	0
0	0	0
0	0	0
0	0	0
0	0	0
0	0	0
0	0	0
0	0	0
0	0	0
0	0	0
0	0	0
0	0	0
0	0	0
0	0	0
0	0	0
0	0	0
0	0	0
0	0	0
0	0	0
0	0	0
0	0	0
0	0	0
0	0	0
0	0	0
0	0	0
0	0	0
0	0	0
0	0	0
0	0	0
0	0	0
0	0	0
0	0	0
0	0	0
0	0	0
0	0	0
0	0	0
0	0	0
0	0	0
0	0	0
0	0	0
0	0	0
0	0	0
0	0	0
0	0	0
0	0	0
0	0	0
0	0	0
0	0	0
0	0	0
0	0	0
0	0	0
0	0	0
0	0	0
0	0	0
0	0	0
0	0	0
0	0	0
0	0	0
0	0	0
0	0	0
0	0	0
0	0	0
0	0	0
0	0	0
0	0	0
0	0	0
0	0	0
0	0	0
0	0	0
0	0	0
0	0	0
0	0	0
0	0	0
0	0	0
0	0	0
0	0	0
0	0	0
0	0	0
0	0	0
0	0	0
0	0	0
0	0	0
0	0	0
0	0	0
0	0	0
0	0	0
0	0	0
0	0	0
0	0	0
0	0	0
0	0	0
0	0	0
0	0	0
0	0	0
0	0	0
0	0	0
0	0	0
0	0	0
0	0	0
0	0	0
0	0	0
0	0	0
0	0	0
0	0	0
0	0	0
0	0	0
0	0	0
0	0	0
0	0	0
0	0	0
0	0	0
0	0	0
0	0	0
-1117.335661	69.19651696	0
-1021.284116	57.8758952	0
-929.914225	47.27577892	0
-843.0115078	37.23099021	0
-761.107493	27.49672209	0
-682.541066	18.79964396	0
-607.9401287	10.57422295	0
-536.3394715	2.978138758	0
-467.6940693	-4.799806154	0
-401.5261171	-11.41674067	0
-337.6546989	-18.15493961	0
-276.6035856	-24.52373439	0
-216.903632	-30.48199557	0
-159.9635004	-36.07379523	0
-104.0700634	-41.03543233	0
-50.96314737	-45.06285337	0
0	0	0
0	0	0
0	0	0
0	0	0
0	0	0
0	0	0
0	0	0
0	0	0
0	0	0
0	0	0
0	0	0
0	0	0
0	0	0
0	0	0
0	0	0
0	0	0
0	0	0
0	0	0
0	0	0
0	0	0
0	0	0
0	0	0
0	0	0
0	0	0
0	0	0
0	0	0
0	0	0
0	0	0
0	0	0
0	0	0
0	0	0
0	0	0
0	0	0
0	0	0
0	0	0
0	0	0
0	0	0
0	0	0
0	0	0
0	0	0
0	0	0
0	0	0
0	0	0
0	0	0
0	0	0
0	0	0
0	0	0
0	0	0
0	0	0
0	0	0
0	0	0
0	0	0
0	0	0
0	0	0
0	0	0
0	0	0
0	0	0
0	0	0
0	0	0
0	0	0
0	0	0
0	0	0
0	0	0
0	0	0
0	0	0
0	0	0
0	0	0
0	0	0
0	0	0
0	0	0
0	0	0
0	0	0
0	0	0
0	0	0
0	0	0
0	0	0
0	0	0
0	0	0
0	0	0
0	0	0
0	0	0
0	0	0
0	0	0
0	0	0
0	0	0
0	0	0
0	0	0
0	0	0
0	0	0
0	0	0
0	0	0
0	0	0
0	0	0
0	0	0
0	0	0
0	0	0
0	0	0
0	0	0
0	0	0
0	0	0
0	0	0
0	0	0
0	0	0
0	0	0
0	0	0
0	0	0
0	0	0
0	0	0
0	0	0
0	0	0
0	0	0
0	0	0
0	0	0
0	0	0
0	0	0
0	0	0
0	0	0
0	0	0
0	0	0
0	0	0
0	0	0
0	0	0
0	0	0
0	0	0
0	0	0
0	0	0
0	0	0
0	0	0
0	0	0
0	0	0
0	0	0
0	0	0
0	0	0
0	0	0
0	0	0
0	0	0
0	0	0
0	0	0
0	0	0
0	0	0
0	0	0
0	0	0
0	0	0
0	0	0
0	0	0
0	0	0
0	0	0
0	0	0
0	0	0
0	0	0
0	0	0
0	0	0
0	0	0
0	0	0
0	0	0
0	0	0
0	0	0
0	0	0
0	0	0
0	0	0
0	0	0
0	0	0
0	0	0
0	0	0
0	0	0
0	0	0
0	0	0
0	0	0
-3875.651739	250.2991037	0
-3607.234351	211.8332564	0
-3356.313091	179.5290158	0
-3118.6834	152.1489138	0
-2897.668582	128.0632127	0
-2690.435812	105.9782619	0
-2499.256062	88.41954863	0
-2317.00441	68.3599974	0
-2148.799135	52.68239003	0
-1990.61378	38.39959918	0
-1843.928103	26.77931323	0
-1704.493589	13.69605344	0
-1575.467691	1.937177786	0
-1451.152889	-6.031608868	0
-1336.954379	-15.04572717	0
-1228.599241	-21.45609432	0
-1126.388936	-29.10720942	0
-1029.46202	-35.88475297	0
-937.8729544	-42.1957796	0
-850.839498	-47.60714346	0
-767.869231	-53.01876461	0
-689.0154119	-58.87948234	0
-614.2023782	-62.89924958	0
-542.3424904	-67.4784925	0
-473.2112252	-71.9331233	0
-407.1739157	-76.30002549	0
-342.7361184	-80.83187531	0
-281.7301245	-85.13678767	0
-221.9430457	-88.92540471	0
-164.0420155	-92.62375855	0
-108.1242621	-95.89496064	0
-53.64365857	-98.02301915	0
0	0	0
0	0	0
0	0	0
0	0	0
0	0	0
0	0	0
0	0	0
0	0	0
0	0	0
0	0	0
0	0	0
0	0	0
0	0	0
0	0	0
0	0	0
0	0	0
0	0	0
0	0	0
0	0	0
0	0	0
0	0	0
0	0	0
0	0	0
0	0	0
0	0	0
0	0	0
0	0	0
0	0	0
0	0	0
0	0	0
0	0	0
0	0	0
0	0	0
0	0	0
0	0	0
0	0	0
0	0	0
0	0	0
0	0	0
0	0	0
0	0	0
0	0	0
0	0	0
0	0	0
0	0	0
0	0	0
0	0	0
0	0	0
0	0	0
0	0	0
0	0	0
0	0	0
0	0	0
0	0	0
0	0	0
0	0	0
0	0	0
0	0	0
0	0	0
0	0	0
0	0	0
0	0	0
0	0	0
0	0	0
0	0	0
0	0	0
0	0	0
0	0	0
0	0	0
0	0	0
0	0	0
0	0	0
0	0	0
0	0	0
0	0	0
0	0	0
0	0	0
0	0	0
0	0	0
0	0	0
0	0	0
0	0	0
0	0	0
0	0	0
0	0	0
0	0	0
0	0	0
0	0	0
0	0	0
0	0	0
0	0	0
0	0	0
0	0	0
0	0	0
0	0	0
0	0	0
0	0	0
0	0	0
0	0	0
0	0	0
0	0	0
0	0	0
0	0	0
0	0	0
0	0	0
0	0	0
0	0	0
0	0	0
0	0	0
0	0	0
0	0	0
0	0	0
0	0	0
0	0	0
0	0	0
0	0	0
0	0	0
0	0	0
0	0	0
0	0	0
0	0	0
0	0	0
0	0	0
0	0	0
0	0	0
0	0	0
0	0	0
0	0	0
0	0	0
0	0	0
0	0	0
0	0	0
0	0	0
0	0	0
0	0	0
0	0	0
0	0	0
0	0	0
0	0	0
0	0	0
0	0	0
0	0	0
0	0	0
0	0	0
0	0	0
0	0	0
0	0	0
0	0	0
0	0	0
0	0	0
0	0	0
0	0	0
-12595.05362	782.4953246	0
-11670.12511	697.2530317	0
-10866.48347	574.7026114	0
-10099.51483	494.4054656	0
-9379.057549	414.8053269	0
-8718.24021	347.5233828	0
-8099.434833	284.6837972	0
-7522.862534	227.9435222	0
-7001.624104	173.9757639	0
-6497.533595	136.8487527	0
-6049.950921	106.8300045	0
-5625.814564	68.55835168	0
-5230.680171	44.76216058	0
-4864.977535	13.56545905	0
-4515.270192	-5.694221537	0
-4203.163098	-28.73403357	0
-3907.001492	-40.10403339	0
-3630.22982	-56.56268254	0
-3374.379596	-67.53329784	0
-3139.350833	-77.01775415	0
-2913.148498	-86.27218623	0
-2705.433409	-91.84128502	0
-2509.419089	-102.5121584	0
-2328.429497	-106.5262839	0
-2155.700944	-110.992555	0
-1999.09963	-114.9384274	0
-1849.640842	-118.3799759	0
-1711.28362	-120.085865	0
-1581.0937	-123.2751655	0
-1456.480474	-124.9990621	0
-1342.134516	-126.1512306	0
-1233.572288	-128.3221861	0
-1129.6435	-129.579176	0
-1034.013075	-130.2813788	0
-940.8356358	-131.0785275	0
-853.4703356	-132.8241113	0
-771.0235348	-133.4803598	0
-691.9193557	-135.0445396	0
-617.3993963	-136.586131	0
-545.0793687	-137.9658916	0
-476.4488308	-139.7351305	0
-410.2687562	-141.7005034	0
-345.9892341	-143.5520445	0
-284.8535196	-145.5462673	0
-224.5891918	-147.7062921	0
-166.7430247	-149.644363	0
-110.3728039	-151.3888866	0
-54.80078722	-152.494564	0
0	0	0
0	0	0
0	0	0
0	0	0
0	0	0
0	0	0
0	0	0
0	0	0
0	0	0
0	0	0
0	0	0
0	0	0
0	0	0
0	0	0
0	0	0
0	0	0
0	0	0
0	0	0
0	0	0
0	0	0
0	0	0
0	0	0
0	0	0
0	0	0
0	0	0
0	0	0
0	0	0
0	0	0
0	0	0
0	0	0
0	0	0
0	0	0
0	0	0
0	0	0
0	0	0
0	0	0
0	0	0
0	0	0
0	0	0
0	0	0
0	0	0
0	0	0
0	0	0
0	0	0
0	0	0
0	0	0
0	0	0
0	0	0
0	0	0
0	0	0
0	0	0
0	0	0
0	0	0
0	0	0
0	0	0
0	0	0
0	0	0
0	0	0
0	0	0
0	0	0
0	0	0
0	0	0
0	0	0
0	0	0
0	0	0
0	0	0
0	0	0
0	0	0
0	0	0
0	0	0
0	0	0
0	0	0
0	0	0
0	0	0
0	0	0
0	0	0
0	0	0
0	0	0
0	0	0
0	0	0
0	0	0
0	0	0
0	0	0
0	0	0
0	0	0
0	0	0
0	0	0
0	0	0
0	0	0
0	0	0
0	0	0
0	0	0
0	0	0
0	0	0
0	0	0
0	0	0
0	0	0
0	0	0
0	0	0
0	0	0
0	0	0
0	0	0
0	0	0
0	0	0
0	0	0
0	0	0
0	0	0
0	0	0
0	0	0
0	0	0
0	0	0
0	0	0
0	0	0
0	0	0
0	0	0
0	0	0
0	0	0
0	0	0
0	0	0
0	0	0
0	0	0
0	0	0
0	0	0
0	0	0
0	0	0
0	0	0
0	0	0
0	0	0
0	0	0
0	0	0
0	0	0
0	0	0
0	0	0
0	0	0
0	0	0
0	0	0
-42330.16817	2790.711644	0
-39228.38407	2292.796403	0
-36370.63935	1922.304519	0
-33693.41276	1620.81712	0
-31177.38626	1345.936189	0
-28932.85153	1123.688727	0
-26811.87538	913.0822329	0
-24857.63746	730.2193622	0
-23041.28307	577.6163849	0
-21376.08341	440.8417031	0
-19831.28658	287.7992258	0
-18390.50694	200.3707257	0
-17069.38601	115.0664584	0
-15834.91594	27.67124003	0
-14685.12181	-41.97414017	0
-13640.26987	-90.34525272	0
-12661.31171	-167.0806158	0
-11759.77715	-187.2078538	0
-10925.9379	-236.973198	0
-10148.17314	-255.260526	0
-9412.672624	-292.9156046	0
-8758.109676	-297.0571775	0
-8134.508513	-310.0070389	0
-7553.932402	-323.8717378	0
-7029.809821	-338.3377742	0
-6528.007481	-338.6566805	0
-6069.736427	-343.3116824	0
-5637.7168	-341.9106971	0
-5245.663525	-345.1327294	0
-4868.921387	-340.1974623	0
-4527.471441	-336.2208275	0
-4208.346909	-333.7742668	0
-3913.968388	-332.035119	0
-3632.659277	-321.6247628	0
-3378.753901	-315.0115974	0
-3133.873462	-309.8954627	0
-2912.594733	-300.8451024	0
-2704.155332	-296.5981609	0
-2508.69228	-289.1560403	0
-2327.985804	-284.3502233	0
-2156.985887	-275.2600654	0
-1997.194303	-268.432476	0
-1846.224244	-261.5409665	0
-1709.221406	-256.7393124	0
-1579.06783	-249.182756	0
-1456.216154	-243.3756596	0
-1339.545542	-238.3530121	0
-1231.123938	-234.5438558	0
-1128.799462	-229.7071754	0
-1031.9691	-223.9615654	0
-940.1274611	-220.9868075	0
-852.66602	-217.3809578	0
-770.9664721	-214.9263875	0
-691.6389576	-211.9299915	0
-617.2012273	-209.7508243	0
-545.4912023	-208.3033737	0
-476.8305549	-207.002752	0
-410.9290735	-206.3261064	0
-347.2939447	-205.9991407	0
-285.6995242	-206.2860404	0
-226.2033054	-206.4526773	0
-167.9436814	-206.9753522	0
-111.2519711	-207.524321	0
-55.37683287	-208.0215843	0
0	0	0
0	0	0
0	0	0
0	0	0
0	0	0
0	0	0
0	0	0
0	0	0
0	0	0
0	0	0
0	0	0
0	0	0
0	0	0
0	0	0
0	0	0
0	0	0
0	0	0
0	0	0
0	0	0
0	0	0
0	0	0
0	0	0
0	0	0
0	0	0
0	0	0
0	0	0
0	0	0
0	0	0
0	0	0
0	0	0
0	0	0
0	0	0
0	0	0
0	0	0
0	0	0
0	0	0
0	0	0
0	0	0
0	0	0
0	0	0
0	0	0
0	0	0
0	0	0
0	0	0
0	0	0
0	0	0
0	0	0
0	0	0
0	0	0
0	0	0
0	0	0
0	0	0
0	0	0
0	0	0
0	0	0
0	0	0
0	0	0
0	0	0
0	0	0
0	0	0
0	0	0
0	0	0
0	0	0
0	0	0
0	0	0
0	0	0
0	0	0
0	0	0
0	0	0
0	0	0
0	0	0
0	0	0
0	0	0
0	0	0
0	0	0
0	0	0
0	0	0
0	0	0
0	0	0
0	0	0
0	0	0
0	0	0
0	0	0
0	0	0
0	0	0
0	0	0
0	0	0
0	0	0
0	0	0
0	0	0
0	0	0
0	0	0
0	0	0
0	0	0
0	0	0
0	0	0
0	0	0
0	0	0
0	0	0
0	0	0
0	0	0
0	0	0
0	0	0
0	0	0
0	0	0
0	0	0
0	0	0
0	0	0
0	0	0
0	0	0
0	0	0
0	0	0
0	0	0
0	0	0
0	0	0
0	0	0
0	0	0
0	0	0
0	0	0
0	0	0
-149271.7183	9610.065699	0
-137877.9424	8127.734842	0
-127485.8752	6745.877222	0
-117744.1109	5653.761219	0
-108853.2051	4649.961037	0
-100426.6337	3769.251767	0
-92978.22901	3068.684845	0
-85896.23649	2385.974428	0
-79459.79121	1825.281136	0
-73416.90032	1333.751082	0
-67951.76852	868.3760541	0
-62874.31017	554.8294439	0
-58150.36126	248.1008406	0
-53813.2266	-55.72851178	0
-49801.07053	-218.0948513	0
-46109.92347	-512.1430419	0
-42618.90057	-643.5870596	0
-39471.50846	-764.4974999	0
-36551.60656	-874.2305607	0
-33894.53437	-970.8137581	0
-31356.20087	-1016.544396	0
-29044.13051	-1089.9136	0
-26931.98576	-1119.185791	0
-24968.18864	-1183.806724	0
-23142.71046	-1156.993502	0
-21434.85857	-1184.024165	0
-19878.27125	-1191.708729	0
-18428.72299	-1185.377029	0
-17111.63395	-1160.738612	0
-15868.56521	-1161.684255	0
-14710.26467	-1137.32974	0
-13659.17775	-1116.75035	0
-12674.62545	-1091.530514	0
-11759.28168	-1067.730671	0
-10920.25772	-1031.078466	0
-10151.58917	-1005.276832	0
-9423.554328	-978.9923728	0
-8752.368702	-930.3792112	0
-8120.759194	-913.1306342	0
-7545.818307	-878.5201071	0
-7016.353044	-840.7862779	0
-6516.203445	-814.8493923	0
-6052.472744	-785.7054381	0
-5617.707941	-755.9970348	0
-5229.797747	-722.794291	0
-4854.841346	-696.5178405	0
-4513.710417	-667.3053919	0
-4192.929912	-640.6695399	0
-3894.737169	-615.471442	0
-3618.93471	-586.6096186	0
-3358.815992	-565.1900504	0
-3121.334979	-541.5261191	0
-2898.187704	-519.3746399	0
-2688.428695	-497.8182294	0
-2496.183955	-479.3397895	0
-2314.907738	-459.5259867	0
-2145.234548	-438.5329495	0
-1986.478208	-423.7226027	0
-1837.799733	-405.6758502	0
-1699.09261	-390.8221424	0
-1569.384833	-375.4674155	0
-1445.187637	-363.0760461	0
-1331.286632	-349.9195271	0
-1223.599982	-338.6733784	0
-1121.606138	-328.7679517	0
-1025.183168	-317.9735363	0
-934.1785599	-310.2793453	0
-847.6874674	-301.4532781	0
-765.7754352	-294.703219	0
-687.997194	-288.4194165	0
-613.9467538	-282.6455607	0
-542.2259968	-277.9521474	0
-474.3047055	-274.1090283	0
-409.3633364	-271.3824289	0
-346.2215299	-268.2644739	0
-285.0754451	-266.6367469	0
-225.7338309	-265.2175055	0
-167.9872573	-264.253656	0
-111.1065491	-263.7762631	0
-55.3619384	-263.5293364	0
0	0	0
0	0	0
0	0	0
0	0	0
0	0	0
0	0	0
0	0	0
0	0	0
0	0	0
0	0	0
0	0	0
0	0	0
0	0	0
0	0	0
0	0	0
0	0	0
0	0	0
0	0	0
0	0	0
0	0	0
0	0	0
0	0	0
0	0	0
0	0	0
0	0	0
0	0	0
0	0	0
0	0	0
0	0	0
0	0	0
0	0	0
0	0	0
0	0	0
0	0	0
0	0	0
0	0	0
0	0	0
0	0	0
0	0	0
0	0	0
0	0	0
0	0	0
0	0	0
0	0	0
0	0	0
0	0	0
0	0	0
0	0	0
0	0	0
0	0	0
0	0	0
0	0	0
0	0	0
0	0	0
0	0	0
0	0	0
0	0	0
0	0	0
0	0	0
0	0	0
0	0	0
0	0	0
0	0	0
0	0	0
0	0	0
0	0	0
0	0	0
0	0	0
0	0	0
0	0	0
0	0	0
0	0	0
0	0	0
0	0	0
0	0	0
0	0	0
0	0	0
0	0	0
0	0	0
0	0	0
0	0	0
0	0	0
0	0	0
0	0	0
0	0	0
0	0	0
0	0	0
0	0	0
0	0	0
0	0	0
0	0	0
0	0	0
0	0	0
0	0	0
0	0	0
0	0	0
0	0	0
0	0	0
0	0	0
0	0	0
0	0	0
0	0	0
0	0	0
0	0	0
-533820.1917	33574.92938	0
-494161.8794	28242.24615	0
-456081.4981	24700.95646	0
-422079.3014	20362.67543	0
-390423.5394	16721.9297	0
-360824.7745	13577.44793	0
-333057.1594	10945.52045	0
-307864.2597	8553.297169	0
-284184.2841	6491.939872	0
-262565.5551	4437.35992	0
-242469.401	2942.586876	0
-223987.4058	1651.017339	0
-206580.9423	671.122238	0
-190804.0384	-363.001787	0
-176285.609	-1389.201668	0
-162641.1923	-1942.334749	0
-150235.9104	-2579.98631	0
-138747.3818	-3070.88891	0
-128251.5084	-3250.859423	0
-118400.7104	-3795.931513	0
-109205.7302	-3982.581024	0
-101093.9907	-4069.136883	0
-93369.29455	-4252.181642	0
-86290.57143	-4345.870157	0
-79708.2811	-4400.829397	0
-73674.64562	-4447.543753	0
-68152.3778	-4399.627255	0
-63012.36274	-4323.844472	0
-58274.19145	-4353.129988	0
-53881.07273	-4200.624529	0
-49778.40211	-4078.966402	0
-46124.40694	-4076.584928	0
-42693.81211	-3929.409783	0
-39458.10066	-3807.389394	0
-36512.09466	-3768.396656	0
-33852.5571	-3560.689674	0
-31335.93294	-3445.33984	0
-29022.38523	-3293.395967	0
-26860.98001	-3183.041467	0
-24916.29827	-3063.184519	0
-23079.56784	-2949.399296	0
-21372.97319	-2810.952476	0
-19821.50372	-2682.582392	0
-18354.67064	-2572.714206	0
-17035.14946	-2477.647794	0
-15811.55283	-2367.233027	0
-14656.89985	-2233.398975	0
-13591.43221	-2137.038588	0
-12616.18953	-2041.280077	0
-11697.4436	-1943.354797	0
-10854.77508	-1848.835637	0
-10083.76815	-1755.694195	0
-9362.018449	-1674.561756	0
-8687.560686	-1590.647666	0
-8070.050269	-1508.451597	0
-7499.25162	-1435.880825	0
-6964.624194	-1354.92524	0
-6465.257517	-1294.551581	0
-6003.70484	-1228.643965	0
-5583.822884	-1170.804651	0
-5183.846182	-1105.8959	0
-4814.459289	-1052.559881	0
-4474.416625	-999.2690134	0
-4155.261455	-947.3281729	0
-3859.390658	-901.1003828	0
-3585.074088	-855.3100873	0
-3329.333577	-812.5815493	0
-3089.500173	-772.5491324	0
-2866.967935	-734.4273578	0
-2661.95568	-699.0868574	0
-2469.445135	-664.5161653	0
-2290.788297	-630.7968685	0
-2121.396797	-603.7833016	0
-1963.432865	-574.481114	0
-1817.695585	-548.5533467	0
-1679.575813	-524.5104692	0
-1551.00851	-503.4927701	0
-1429.216265	-480.2604801	0
-1315.656978	-461.0087363	0
-1208.927003	-443.3483242	0
-1108.811215	-425.9766665	0
-1013.422396	-412.1117533	0
-922.9058954	-397.5657182	0
-837.638766	-385.0295786	0
-757.4367446	-373.5610675	0
-680.48842	-364.1112395	0
-606.9207061	-355.4865412	0
-537.0318632	-347.3774465	0
-469.3454444	-340.3447644	0
-405.3820983	-334.2623366	0
-342.7983139	-330.212188	0
-282.5605246	-326.3470656	0
-223.7886533	-323.762463	0
-166.6571114	-321.3513065	0
-110.3778203	-319.904469	0
-54.99193324	-318.9206138	0
0	0	0
0	0	0
0	0	0
0	0	0
0	0	0
0	0	0
0	0	0
0	0	0
0	0	0
0	0	0
0	0	0
0	0	0
0	0	0
0	0	0
0	0	0
0	0	0
0	0	0
0	0	0
0	0	0
0	0	0
0	0	0
0	0	0
0	0	0
0	0	0
0	0	0
0	0	0
0	0	0
0	0	0
0	0	0
0	0	0
0	0	0
0	0	0
0	0	0
0	0	0
0	0	0
0	0	0
0	0	0
0	0	0
0	0	0
0	0	0
0	0	0
0	0	0
0	0	0
0	0	0
0	0	0
0	0	0
0	0	0
0	0	0
0	0	0
0	0	0
0	0	0
0	0	0
0	0	0
0	0	0
0	0	0
0	0	0
0	0	0
0	0	0
0	0	0
0	0	0
0	0	0
0	0	0
0	0	0
0	0	0
0	0	0
0	0	0
0	0	0
0	0	0
0	0	0
0	0	0
0	0	0
0	0	0
0	0	0
0	0	0
0	0	0
0	0	0
0	0	0
0	0	0
0	0	0
0	0	0
0	0	0
0	0	0
0	0	0
0	0	0
0	0	0
0	0	0
0	0	0
0	0	0
-1586378.509	98806.44869	0
-1512650.478	87734.90831	0
-1433930.826	79708.02222	0
-1354689.445	69586.95049	0
-1275538.749	59972.10527	0
-1196962.205	50665.63932	0
-1121537.402	41893.55519	0
-1047139.464	33647.36632	0
-977959.9616	26129.80197	0
-910587.1006	20326.47712	0
-847061.3185	13831.68387	0
-785784.6635	8823.330757	0
-730458.2386	5014.73929	0
-677156.0475	290.5650584	0
-627513.5074	-2742.067487	0
-581154.1272	-6056.168323	0
-537248.8948	-9046.171328	0
-497047.1082	-9871.735053	0
-459755.6269	-11680.07714	0
-424721.1109	-13338.16963	0
-392346.0656	-14353.59662	0
-362799.7069	-14945.59631	0
-334457.8409	-15694.72883	0
-309246.0697	-16113.05691	0
-285234.8924	-16322.16127	0
-263342.0168	-16436.88418	0
-243116.0273	-16409.208	0
-224506.3757	-16298.39146	0
-207185.3919	-16184.42577	0
-190854.3957	-15703.5764	0
-176251.6644	-15409.79309	0
-162897.547	-15045.9533	0
-150322.4786	-14582.12742	0
-138804.9853	-14161.07422	0
-128169.3222	-13644.34127	0
-118273.1527	-13215.18797	0
-109213.9769	-12628.36518	0
-100796.0623	-12162.01554	0
-93195.48089	-11726.97647	0
-86028.19761	-11185.79211	0
-79526.22273	-10758.7478	0
-73449.85483	-10192.15565	0
-67884.1836	-9752.022301	0
-62769.15058	-9308.803263	0
-57990.36182	-8839.959094	0
-53648.47505	-8410.660083	0
-49565.19605	-8022.732562	0
-45830.52233	-7652.825856	0
-42391.16317	-7213.430211	0
-39266.40088	-6850.585635	0
-36286.88325	-6515.814877	0
-33601.0357	-6231.349268	0
-31095.69538	-5873.107267	0
-28768.71211	-5533.244575	0
-26679.36901	-5260.209078	0
-24684.91975	-4978.262914	0
-22896.43132	-4716.883089	0
-21201.49975	-4426.608981	0
-19650.55555	-4182.350189	0
-18201.99492	-3958.669777	0
-16866.07904	-3742.907403	0
-15647.75772	-3538.264771	0
-14507.97202	-3333.921075	0
-13457.88497	-3157.870914	0
-12497.30674	-2975.717218	0
-11576.14775	-2820.718275	0
-10742.88212	-2651.407816	0
-9969.159582	-2510.201461	0
-9247.324296	-2363.318382	0
-8582.81972	-2230.748329	0
-7964.374526	-2103.769107	0
-7399.920495	-1984.658846	0
-6871.747347	-1874.935496	0
-6380.51383	-1769.500519	0
-5927.683727	-1673.22256	0
-5504.147586	-1573.697556	0
-5111.43973	-1487.689025	0
-4747.980528	-1405.968979	0
-4410.144143	-1324.083824	0
-4094.179054	-1254.515541	0
-3798.819346	-1183.899769	0
-3531.960063	-1118.28179	0
-3280.270393	-1056.450139	0
-3044.04583	-999.699408	0
-2822.418006	-947.0866818	0
-2622.259689	-898.2596982	0
-2431.852786	-849.816948	0
-2252.602011	-805.904365	0
-2088.110315	-762.7883446	0
-1931.236229	-725.3883852	0
-1787.412879	-690.4227508	0
-1652.628332	-655.8791699	0
-1524.171494	-625.8245167	0
-1405.999283	-597.1182622	0
-1292.673434	-570.7073811	0
-1188.508807	-546.7765617	0
-1090.003313	-523.1140293	0
-995.8168186	-503.296946	0
-907.6123732	-483.4754554	0
-823.8522736	-467.5644688	0
-744.1092893	-452.0247332	0
-669.4232776	-437.5725512	0
-597.1484108	-426.2091143	0
-528.3387557	-415.2179138	0
-462.056951	-406.1920641	0
-399.1630705	-398.1566914	0
-337.6487842	-390.7223542	0
-278.155225	-384.8384933	0
-220.7098409	-380.9726207	0
-164.3660868	-377.5037182	0
-108.7458665	-375.1918546	0
-54.42512973	-373.7433845	0
0	0	0
0	0	0
0	0	0
0	0	0
0	0	0
0	0	0
0	0	0
0	0	0
0	0	0
0	0	0
0	0	0
0	0	0
0	0	0
0	0	0
0	0	0
0	0	0
0	0	0
0	0	0
0	0	0
0	0	0
0	0	0
0	0	0
0	0	0
0	0	0
0	0	0
0	0	0
0	0	0
0	0	0
0	0	0
0	0	0
0	0	0
0	0	0
0	0	0
0	0	0
0	0	0
0	0	0
0	0	0
0	0	0
0	0	0
0	0	0
0	0	0
0	0	0
0	0	0
0	0	0
0	0	0
0	0	0
0	0	0
0	0	0
0	0	0
0	0	0
0	0	0
0	0	0
0	0	0
0	0	0
0	0	0
0	0	0
0	0	0
0	0	0
0	0	0
0	0	0
0	0	0
0	0	0
0	0	0
0	0	0
0	0	0
0	0	0
0	0	0
0	0	0
0	0	0
0	0	0
0	0	0
0	0	0
4280075.078	-227224.359	0
2730749.637	-43067.73104	0
1503640.742	74544.06033	0
543586.3291	133977.1728	0
-103652.519	192267.7763	0
-692868.1326	187004.4684	0
-1090090.621	199704.3111	0
-1382665.27	186905.2394	0
-1592333.402	177831.9997	0
-1702961.283	157684.8339	0
-1782373.523	140555.34	0
-1806231.123	123128.5007	0
-1802812.183	102769.8349	0
-1774628.334	77964.48753	0
-1727704.993	59968.38918	0
-1668288.298	41924.03752	0
-1598903.165	25533.41977	0
-1523940.92	12898.81853	0
-1444753.801	481.0251412	0
-1364455.734	-10263.67858	0
-1284554.972	-18988.92738	0
-1204940.058	-26966.78017	0
-1128098.252	-33399.66192	0
-1054073.929	-38707.21995	0
-983162.2762	-42188.82767	0
-915000.7543	-45036.1837	0
-850506.8093	-48342.51613	0
-790176.4479	-49969.23824	0
-732659.7452	-50809.60237	0
-679301.2514	-50858.1255	0
-629310.7516	-52035.1922	0
-581852.8052	-50799.78669	0
-538149.403	-50202.66445	0
-497500.137	-49345.59902	0
-459942.2254	-48487.32366	0
-424280.9743	-47019.77595	0
-391869.2086	-45319.92083	0
-362205.4789	-44236.08089	0
-333334.6979	-43559.74962	0
-308526.4256	-40890.98159	0
-284520.253	-39140.73928	0
-262559.4111	-37474.91501	0
-242253.216	-35699.01596	0
-223511.4652	-34284.28667	0
-206014.8337	-32619.0356	0
-190130.3717	-31128.33529	0
-175745.3612	-29549.16203	0
-162028.1089	-28002.1131	0
-149308.3947	-26578.68799	0
-137619.9449	-25034.43965	0
-127152.11	-23837.50002	0
-117408.408	-22562.74975	0
-108359.149	-21431.38646	0
-100124.2799	-20202.88096	0
-92410.88195	-18972.10051	0
-85295.9942	-18019.8773	0
-78811.07701	-16905.92901	0
-72710.62294	-16017.57546	0
-67214.68557	-15130.3425	0
-62120.70076	-14243.38951	0
-57413.81751	-13367.72875	0
-53024.41077	-12656.31452	0
-48978.12132	-11875.6518	0
-45354.20358	-11134.95491	0
-41896.53573	-10598.62064	0
-38772.20425	-9929.747925	0
-35881.17463	-9282.923826	0
-33139.28142	-8759.932952	0
-30709.90956	-8231.799058	0
-28393.57369	-7747.105498	0
-26301.61784	-7273.389148	0
-24354.84795	-6881.651902	0
-22551.74968	-6427.983236	0
-20887.75387	-6056.835571	0
-19359.91501	-5687.200234	0
-17915.85611	-5333.602955	0
-16616.09714	-5006.888393	0
-15388.47756	-4711.4755	0
-14276.58221	-4431.405965	0
-13228.95585	-4159.463996	0
-12270.13504	-3911.137083	0
-11381.18316	-3671.699956	0
-10560.73077	-3462.710468	0
-9790.509312	-3244.344814	0
-9095.722439	-3050.821403	0
-8431.817919	-2854.962223	0
-7819.557742	-2693.07189	0
-7270.449057	-2533.650221	0
-6740.411186	-2379.227174	0
-6254.529824	-2235.443344	0
-5813.445646	-2106.784505	0
-5395.83614	-1980.818385	0
-5013.689349	-1861.077274	0
-4654.064862	-1751.547166	0
-4323.385138	-1650.550981	0
-4009.640231	-1551.81311	0
-3725.148546	-1463.518173	0
-3461.694682	-1379.997448	0
-3211.229153	-1300.942602	0
-2981.343278	-1226.370305	0
-2762.068572	-1155.872925	0
-2565.126183	-1091.024679	0
-2379.699106	-1034.44145	0
-2205.079011	-974.0014343	0
-2041.935344	-924.4919179	0
-1889.445554	-874.6596899	0
-1750.455631	-829.6084204	0
-1616.165676	-786.0353857	0
-1491.155576	-746.0510519	0
-1372.995733	-711.8344024	0
-1265.500113	-678.8197093	0
-1162.18471	-646.6181984	0
-1065.505167	-618.9726926	0
-973.8820063	-592.6316838	0
-887.3877538	-569.1297152	0
-805.8484383	-547.5467512	0
-727.8133046	-527.968985	0
-654.6833401	-510.8809271	0
-584.0519074	-495.3507571	0
-516.8022945	-481.8878671	0
-452.2656606	-469.4012921	0
-390.5693345	-459.2836547	0
-330.7724076	-449.8664004	0
-272.4600623	-443.1144544	0
-215.8964131	-437.1582372	0
-161.2106149	-432.6444903	0
-106.8534717	-429.4952134	0
-53.26989555	-427.7933736	0
0	0	0
0	0	0
0	0	0
0	0	0
0	0	0
0	0	0
0	0	0
0	0	0
0	0	0
0	0	0
0	0	0
0	0	0
0	0	0
0	0	0
0	0	0
0	0	0
0	0	0
0	0	0
0	0	0
0	0	0
0	0	0
0	0	0
0	0	0
0	0	0
0	0	0
0	0	0
0	0	0
0	0	0
0	0	0
0	0	0
0	0	0
0	0	0
0	0	0
0	0	0
0	0	0
0	0	0
0	0	0
0	0	0
0	0	0
0	0	0
0	0	0
0	0	0
0	0	0
0	0	0
0	0	0
0	0	0
0	0	0
0	0	0
0	0	0
0	0	0
0	0	0
0	0	0
0	0	0
0	0	0
0	0	0
0	0	0
304295559.8	-24713045.33	0
235216115.8	-9105171.596	0
183448774.5	-4004234.517	0
144017862.8	-1442573.977	0
113425029	-1312542.103	0
91076820.41	947034.4375	0
71785334.29	2468853.405	0
56751125.12	2514767.613	0
44565145.69	2566346.519	0
35174294.07	2602217.349	0
27430232.48	2715294.464	0
20956933.63	2611739.857	0
16082419.77	2426849.323	0
11919074.98	2110756.589	0
8817985.487	1947075.381	0
6235057.238	1693383.921	0
4334239.488	1418658.378	0
2685418.055	1283191.257	0
1459232.76	1112191.65	0
519558.9163	969475.736	0
-198336.0494	775084.6425	0
-736578.1969	676049.4944	0
-1147534.763	539726.1719	0
-1434703.107	431735.7644	0
-1623407.523	343148.5426	0
-1751495.988	253701.4846	0
-1818291.524	190456.7482	0
-1845429.407	129720.7104	0
-1837460.896	79907.50539	0
-1803051.765	38733.2233	0
-1755371.097	4130.322182	0
-1689231.966	-25124.2812	0
-1616495.819	-47281.53241	0
-1538889.071	-66338.60656	0
-1456655.452	-80371.91325	0
-1374284.906	-91708.20565	0
-1291879.378	-99812.51707	0
-1211664.117	-106097.5317	0
-1132883.735	-110035.152	0
-1057303.931	-111588.0039	0
-985473.4616	-112747.6839	0
-915686.0496	-113597.7909	0
-850617.6282	-110870.9865	0
-789385.8279	-109070.0879	0
-731911.1606	-106814.0064	0
-678093.5756	-103885.9068	0
-627019.2384	-99808.5051	0
-579877.547	-96405.12325	0
-536048.6808	-92169.01593	0
-495137.4669	-88892.91312	0
-457564.4088	-84308.61085	0
-422202.8412	-80709.24984	0
-389171.3591	-76878.48278	0
-359478.8287	-73040.6832	0
-331486.6185	-69174.7901	0
-305717.6486	-65605.14225	0
-281973.5169	-62179.63236	0
-260069.3499	-58484.27482	0
-239732.1793	-55397.28659	0
-221160.1713	-52224.15031	0
-203886.0852	-49207.68838	0
-187994.7297	-46327.44727	0
-173453.4033	-43513.77872	0
-160008.1888	-41099.69253	0
-147672.5104	-38415.73587	0
-136007.3118	-36257.96619	0
-125503.4394	-33942.14341	0
-115666.3396	-31981.14274	0
-106753.8811	-30072.36435	0
-98594.5472	-28160.77562	0
-90906.51562	-26424.041	0
-83982.35204	-24734.89538	0
-77515.17187	-23185.32114	0
-71578.64583	-21765.01397	0
-65982.76042	-20372.56139	0
-61088.30229	-19194.54444	0
-56402.34589	-17910.68509	0
-52110.08859	-16769.03837	0
-48167.68385	-15711.82732	0
-44532.81676	-14673.41711	0
-41135.04309	-13761.51589	0
-38068.24121	-12870.9756	0
-35204.21183	-12143.04126	0
-32529.11887	-11297.99	0
-30059.12928	-10593.90258	0
-27856.93072	-9921.695439	0
-25759.41012	-9273.547257	0
-23872.95889	-8703.21934	0
-22098.08101	-8141.990758	0
-20452.55587	-7622.690937	0
-18934.01853	-7145.964358	0
-17545.66017	-6703.888884	0
-16248.41985	-6272.121617	0
-15043.63036	-5866.589009	0
-13943.75311	-5494.637769	0
-12939.3072	-5163.670518	0
-11999.26631	-4815.07845	0
-11121.38787	-4525.382164	0
-10311.39589	-4237.392727	0
-9547.222482	-3974.712749	0
-8869.116744	-3719.48986	0
-8228.612627	-3492.236774	0
-7631.499437	-3269.36825	0
-7085.19527	-3067.728791	0
-6577.510822	-2873.373857	0
-6109.456135	-2695.499702	0
-5663.676411	-2532.003268	0
-5263.68148	-2377.781449	0
-4881.75352	-2229.662419	0
-4538.158958	-2100.454625	0
-4212.353717	-1962.973477	0
-3912.366885	-1851.104311	0
-3629.739277	-1738.318244	0
-3367.120635	-1631.91046	0
-3130.044498	-1533.319326	0
-2903.056795	-1450.821158	0
-2691.310078	-1360.987951	0
-2494.731336	-1283.807179	0
-2315.147442	-1209.057403	0
-2145.034725	-1142.058781	0
-1985.943203	-1078.011059	0
-1836.955067	-1015.400051	0
-1700.191888	-965.1363075	0
-1570.720293	-912.7138398	0
-1449.582028	-866.0471662	0
-1336.014783	-823.2804136	0
-1230.322245	-781.9684703	0
-1129.346824	-745.7550946	0
-1036.054378	-710.894499	0
-946.2239416	-681.0699274	0
-863.2450862	-652.032887	0
-783.4354196	-625.8036411	0
-707.7031982	-603.2995026	0
-636.1673668	-581.5032788	0
-567.3579211	-562.9627721	0
-503.054608	-546.7220149	0
-439.7118248	-532.0544855	0
-380.0399219	-518.9268401	0
-321.6905619	-508.5914104	0
-265.206552	-499.5345617	0
-210.5015949	-492.4009985	0
-156.3673763	-486.1070771	0
-104.0906625	-482.998359	0
-51.88534912	-480.4193362	0
0	0	0
0	0	0
0	0	0
0	0	0
0	0	0
0	0	0
0	0	0
0	0	0
0	0	0
0	0	0
0	0	0
0	0	0
0	0	0
0	0	0
0	0	0
0	0	0
0	0	0
0	0	0
0	0	0
0	0	0
0	0	0
0	0	0
0	0	0
0	0	0
0	0	0
0	0	0
0	0	0
0	0	0
0	0	0
0	0	0
0	0	0
0	0	0
0	0	0
0	0	0
0	0	0
0	0	0
0	0	0
0	0	0
0	0	0
0	0	0
-68513387020	4289151417	0
-68159376880	4236943150	0
-67785797981	4189076364	0
-67385078300	4135821925	0
-66954500746	4068512311	0
-66468375420	3988924706	0
-65892595697	3896277435	0
-65214995737	3726339738	0
-58283109046	3300347451	0
-44560289500	2559988430	0
-31092664122	1837205488	0
-17900462744	1189050700	0
-5000249527	603677614.4	0
958295125.7	250311843.7	0
591247019.5	192152612.4	0
404977169.1	102250505.1	0
295450731	66794225.92	0
233904827.5	46130423.93	0
180929070.1	37577911.99	0
142207674.8	31481059.65	0
112503867.7	26561067.92	0
88584245.09	22090527.07	0
70889500.73	18492814.7	0
55708398.69	15989940.4	0
44438678.63	13707489.84	0
34085336.21	11295738.65	0
26365613.08	9608604.286	0
20350559.17	8102735.926	0
15212610.43	6819294.159	0
11419001.39	5800867.977	0
8279813.451	4672791.238	0
5801683.96	3956191.467	0
3833487.462	3268341.828	0
2335116.811	2678782.8	0
1157086.968	2177092.54	0
260166.0313	1748720.463	0
-430045.4679	1411229.887	0
-967809.1052	1111706.951	0
-1340040.984	888078.1889	0
-1578862.123	662223.7508	0
-1749812.041	489118.6111	0
-1849985.666	338253.4786	0
-1907353.348	222946.6753	0
-1916887.844	132170.4564	0
-1897292.913	48777.66491	0
-1851026.759	-8362.198469	0
-1788806.353	-59783.2745	0
-1719420.75	-96978.12129	0
-1639538.504	-126236.2632	0
-1555014.042	-148448.5119	0
-1470762.864	-164817.2671	0
-1384020.208	-176125.795	0
-1298029.443	-183120.9567	0
-1214713.802	-187045.1095	0
-1134558.364	-186651.6431	0
-1056921.422	-186569.1217	0
-983234.669	-183854.8188	0
-913205.5326	-179695.4064	0
-846639.6401	-174774.5787	0
-785059.1546	-169073.4479	0
-726956.5048	-162372.6154	0
-672889.4025	-155325.1555	0
-621118.5749	-148134.0801	0
-574456.1219	-142181.3673	0
-530676.9987	-135150.5695	0
-489856.9701	-127690.425	0
-451992.6281	-121538.2872	0
-416818.4499	-114446.8266	0
-384541.1546	-108181.9634	0