# OOMMF OVF 2.0
# Segment count: 1
# Begin: Segment
# Begin: Header
# valuedim: 3
# Title: Current Density Field
# meshtype: rectangular
# meshunit: m
# xmin: -200e-9
# ymin: -50e-9
# zmin: 0.0
# xmax: 200e-9
# ymax: 50e-9
# zmax: 0.0
# xbase: -200e-9
# ybase: -50e-9
# zbase: 0
# xnodes: 200
# ynodes: 50
# znodes: 1
# xstepsize: 2e-9
# ystepsize: 2e-9
# zstepsize: 1e-9
# End: header
# Begin: Data text
0	0	0
0	0	0
0	0	0
0	0	0
0	0	0
0	0	0
0	0	0
0	0	0
0	0	0
0	0	0
0	0	0
0	0	0
0	0	0
0	0	0
0	0	0
0	0	0
0	0	0
0	0	0
0	0	0
0	0	0
0	0	0
0	0	0
0	0	0
0	0	0
0	0	0
0	0	0
0	0	0
0	0	0
0	0	0
0	0	0
0	0	0
0	0	0
0	0	0
0	0	0
0	0	0
0	0	0
0	0	0
0	0	0
0	0	0
0	0	0
0	0	0
0	0	0
0	0	0
0	0	0
0	0	0
0	0	0
0	0	0
0	0	0
0	0	0
0	0	0
0	0	0
0	0	0
0	0	0
0	0	0
0	0	0
0	0	0
0	0	0
0	0	0
0	0	0
0	0	0
0	0	0
0	0	0
0	0	0
0	0	0
0	0	0
0	0	0
0	0	0
0	0	0
0	0	0
0	0	0
0	0	0
0	0	0
0	0	0
0	0	0
0	0	0
0	0	0
0	0	0
0	0	0
0	0	0
0	0	0
0	0	0
0	0	0
0	0	0
0	0	0
0	0	0
0	0	0
0	0	0
0	0	0
0	0	0
0	0	0
0	0	0
0	0	0
0	0	0
0	0	0
0	0	0
0	0	0
0	0	0
0	0	0
0	0	0
0	0	0
0	0	0
0	0	0
0	0	0
0	0	0
0	0	0
0	0	0
0	0	0
0	0	0
0	0	0
0	0	0
0	0	0
0	0	0
0	0	0
0	0	0
0	0	0
0	0	0
0	0	0
0	0	0
0	0	0
0	0	0
0	0	0
0	0	0
0	0	0
0	0	0
0	0	0
0	0	0
0	0	0
0	0	0
0	0	0
0	0	0
0	0	0
0	0	0
0	0	0
0	0	0
0	0	0
0	0	0
0	0	0
0	0	0
0	0	0
0	0	0
0	0	0
0	0	0
0	0	0
0	0	0
0	0	0
0	0	0
0	0	0
0	0	0
0	0	0
0	0	0
0	0	0
0	0	0
0	0	0
0	0	0
0	0	0
0	0	0
0	0	0
0	0	0
0	0	0
0	0	0
0	0	0
0	0	0
0	0	0
0	0	0
0	0	0
0	0	0
0	0	0
0	0	0
0	0	0
0	0	0
0	0	0
0	0	0
0	0	0
0	0	0
0	0	0
0	0	0
0	0	0
0	0	0
0	0	0
0	0	0
0	0	0
0	0	0
0	0	0
0	0	0
0	0	0
0	0	0
0	0	0
0	0	0
0	0	0
0	0	0
0	0	0
0	0	0
0	0	0
0	0	0
0	0	0
0	0	0
0	0	0
0	0	0
0	0	0
0	0	0
0	0	0
0	0	0
0	0	0
0	0	0
0	0	0
0	0	0
0	0	0
0	0	0
0	0	0
0	0	0
0	0	0
0	0	0
0	0	0
0	0	0
0	0	0
0	0	0
0	0	0
0	0	0
0	0	0
0	0	0
0	0	0
0	0	0
0	0	0
0	0	0
0	0	0
0	0	0
0	0	0
0	0	0
0	0	0
0	0	0
0	0	0
0	0	0
0	0	0
0	0	0
0	0	0
0	0	0
0	0	0
0	0	0
0	0	0
0	0	0
0	0	0
0	0	0
0	0	0
0	0	0
0	0	0
0	0	0
0	0	0
0	0	0
0	0	0
0	0	0
0	0	0
0	0	0
0	0	0
0	0	0
0	0	0
0	0	0
0	0	0
0	0	0
0	0	0
0	0	0
0	0	0
0	0	0
0	0	0
0	0	0
0	0	0
0	0	0
0	0	0
0	0	0
0	0	0
0	0	0
0	0	0
0	0	0
0	0	0
0	0	0
0	0	0
0	0	0
0	0	0
0	0	0
0	0	0
0	0	0
0	0	0
0	0	0
0	0	0
0	0	0
0	0	0
0	0	0
0	0	0
0	0	0
0	0	0
0	0	0
0	0	0
0	0	0
0	0	0
0	0	0
0	0	0
0	0	0
0	0	0
0	0	0
0	0	0
0	0	0
0	0	0
0	0	0
0	0	0
0	0	0
0	0	0
0	0	0
0	0	0
0	0	0
0	0	0
0	0	0
0	0	0
0	0	0
0	0	0
0	0	0
0	0	0
0	0	0
0	0	0
0	0	0
0	0	0
0	0	0
0	0	0
0	0	0
0	0	0
0	0	0
0	0	0
0	0	0
0	0	0
0	0	0
0	0	0
0	0	0
0	0	0
0	0	0
0	0	0
0	0	0
0	0	0
0	0	0
0	0	0
0	0	0
0	0	0
0	0	0
0	0	0
0	0	0
0	0	0
0	0	0
0	0	0
0	0	0
0	0	0
0	0	0
0	0	0
0	0	0
0	0	0
0	0	0
0	0	0
0	0	0
0	0	0
0	0	0
0	0	0
0	0	0
0	0	0
0	0	0
0	0	0
0	0	0
0	0	0
0	0	0
0	0	0
0	0	0
0	0	0
0	0	0
0	0	0
0	0	0
0	0	0
0	0	0
0	0	0
0	0	0
0	0	0
0	0	0
0	0	0
0	0	0
0	0	0
0	0	0
0	0	0
0	0	0
0	0	0
0	0	0
9304509.849	-559507.8785	0
8061088.934	-429036.4101	0
6964190.23	-316730.6799	0
6000486.685	-219536.3939	0
5174756.052	-130388.4251	0
4435812.906	-66295.34906	0
3795702.571	-13004.98055	0
3224361.465	27588.30458	0
2716535.823	74018.82276	0
2260180.59	98757.29867	0
1846686.09	128104.9848	0
1481410.702	153097.7804	0
1136281.826	174757.4673	0
828369.4686	195513.3295	0
531318.6774	214280.4652	0
259405.3403	231056.0189	0
0	0	0
0	0	0
0	0	0
0	0	0
0	0	0
0	0	0
0	0	0
0	0	0
0	0	0
0	0	0
0	0	0
0	0	0
0	0	0
0	0	0
0	0	0
0	0	0
0	0	0
0	0	0
0	0	0
0	0	0
0	0	0
0	0	0
0	0	0
0	0	0
0	0	0
0	0	0
0	0	0
0	0	0
0	0	0
0	0	0
0	0	0
0	0	0
0	0	0
0	0	0
0	0	0
0	0	0
0	0	0
0	0	0
0	0	0
0	0	0
0	0	0
0	0	0
0	0	0
0	0	0
0	0	0
0	0	0
0	0	0
0	0	0
0	0	0
0	0	0
0	0	0
0	0	0
0	0	0
0	0	0
0	0	0
0	0	0
0	0	0
0	0	0
0	0	0
0	0	0
0	0	0
0	0	0
0	0	0
0	0	0
0	0	0
0	0	0
0	0	0
0	0	0
0	0	0
0	0	0
0	0	0
0	0	0
0	0	0
0	0	0
0	0	0
0	0	0
0	0	0
0	0	0
0	0	0
0	0	0
0	0	0
0	0	0
0	0	0
0	0	0
0	0	0
0	0	0
0	0	0
0	0	0
0	0	0
0	0	0
0	0	0
0	0	0
0	0	0
0	0	0
0	0	0
0	0	0
0	0	0
0	0	0
0	0	0
0	0	0
0	0	0
0	0	0
0	0	0
0	0	0
0	0	0
0	0	0
0	0	0
0	0	0
0	0	0
0	0	0
0	0	0
0	0	0
0	0	0
0	0	0
0	0	0
0	0	0
0	0	0
0	0	0
0	0	0
0	0	0
0	0	0
0	0	0
0	0	0
0	0	0
0	0	0
0	0	0
0	0	0
0	0	0
0	0	0
0	0	0
0	0	0
0	0	0
0	0	0
0	0	0
0	0	0
0	0	0
0	0	0
0	0	0
0	0	0
0	0	0
0	0	0
0	0	0
0	0	0
0	0	0
0	0	0
0	0	0
0	0	0
0	0	0
0	0	0
0	0	0
0	0	0
0	0	0
0	0	0
0	0	0
0	0	0
0	0	0
0	0	0
0	0	0
0	0	0
0	0	0
0	0	0
0	0	0
0	0	0
0	0	0
0	0	0
0	0	0
0	0	0
0	0	0
92575744.32	-6703265.515	0
80310697.2	-4556562.512	0
69641543.37	-3136928.004	0
60165629.19	-2144571.164	0
52071085.57	-1423466.837	0
45010960.48	-815317.794	0
39088754.91	-495907.0158	0
33753529.07	-2344.607474	0
29280878.61	247453.1025	0
25367713.79	438601.7147	0
22059137.61	512105.895	0
19093860.89	682633.976	0
16609349.95	798857.4878	0
14328619.23	768449.8601	0
12457438.41	798572.0295	0
10801930.19	745555.0419	0
9360275.21	750908.2936	0
8096430.516	739932.7572	0
6999061.554	720970.5914	0
6035974.61	683429.9321	0
5186459.164	656724.8323	0
4446108.159	644616.7228	0
3803890.837	599873.5304	0
3231101.209	571780.7645	0
2718436.239	547587.7254	0
2267539.162	528740.2195	0
1847865.136	518466.487	0
1488948.66	510188.2694	0
1148637.934	499362.16	0
835701.415	496361.672	0
544707.1889	498028.0814	0
267845.8446	498612.727	0
0	0	0
0	0	0
0	0	0
0	0	0
0	0	0
0	0	0
0	0	0
0	0	0
0	0	0
0	0	0
0	0	0
0	0	0
0	0	0
0	0	0
0	0	0
0	0	0
0	0	0
0	0	0
0	0	0
0	0	0
0	0	0
0	0	0
0	0	0
0	0	0
0	0	0
0	0	0
0	0	0
0	0	0
0	0	0
0	0	0
0	0	0
0	0	0
0	0	0
0	0	0
0	0	0
0	0	0
0	0	0
0	0	0
0	0	0
0	0	0
0	0	0
0	0	0
0	0	0
0	0	0
0	0	0
0	0	0
0	0	0
0	0	0
0	0	0
0	0	0
0	0	0
0	0	0
0	0	0
0	0	0
0	0	0
0	0	0
0	0	0
0	0	0
0	0	0
0	0	0
0	0	0
0	0	0
0	0	0
0	0	0
0	0	0
0	0	0
0	0	0
0	0	0
0	0	0
0	0	0
0	0	0
0	0	0
0	0	0
0	0	0
0	0	0
0	0	0
0	0	0
0	0	0
0	0	0
0	0	0
0	0	0
0	0	0
0	0	0
0	0	0
0	0	0
0	0	0
0	0	0
0	0	0
0	0	0
0	0	0
0	0	0
0	0	0
0	0	0
0	0	0
0	0	0
0	0	0
0	0	0
0	0	0
0	0	0
0	0	0
0	0	0
0	0	0
0	0	0
0	0	0
0	0	0
0	0	0
0	0	0
0	0	0
0	0	0
0	0	0
0	0	0
0	0	0
0	0	0
0	0	0
0	0	0
0	0	0
0	0	0
0	0	0
0	0	0
0	0	0
0	0	0
0	0	0
0	0	0
0	0	0
0	0	0
0	0	0
0	0	0
0	0	0
0	0	0
0	0	0
0	0	0
0	0	0
0	0	0
0	0	0
0	0	0
0	0	0
0	0	0
0	0	0
0	0	0
0	0	0
0	0	0
0	0	0
0	0	0
0	0	0
0	0	0
0	0	0
0	0	0
0	0	0
0	0	0
0	0	0
0	0	0
0	0	0
-4946287407	661728143	0
5221513049	1626070983	0
912896301.8	-102513904	0
833016794.8	-13826659.76	0
683436678.6	-9262029.903	0
564386704.6	-3926914.261	0
466850116.6	1763211.19	0
389273429.9	5621211.672	0
330113299.7	9230120.515	0
276692221.5	8890007.474	0
237076476.9	8028972.605	0
202205822.7	9417374.277	0
172820929.7	8699814.596	0
148276763.2	9495102.165	0
126192465.9	8863019.599	0
109161778.3	8956639.219	0
93909341.27	7974610.778	0
80811577.65	7736861.64	0
69778811.82	7157531.889	0
60517380.89	6613549.655	0
52141214.09	6157230.537	0
45120243.85	5528801.57	0
38938407.85	5372775.83	0
33744843.87	4842902.94	0
29031837.11	4439367.719	0
25278855.01	4086007.83	0
21850059.93	3736745.005	0
18979575.6	3362034.137	0
16472587.88	3102328.318	0
14204992.22	2816047.597	0
12350063.03	2539161.683	0
10705549.11	2343084.476	0
9225532.193	2123787.334	0
8016790.064	1913734.729	0
6886184.692	1731514.428	0
5927577.543	1589624.313	0
5103109.078	1434788.501	0
4364639.644	1317250.109	0
3741724.777	1209829.837	0
3165179.472	1110113.788	0
2670902.716	1029434.494	0
2226480.472	962574.0042	0
1817567.63	902118.4046	0
1463954.252	855034.6381	0
1126714.422	821251.6613	0
823532.6627	794722.0405	0
539233.3118	777711.2092	0
265722.5614	771197.4197	0
0	0	0
0	0	0
0	0	0
0	0	0
0	0	0
0	0	0
0	0	0
0	0	0
0	0	0
0	0	0
0	0	0
0	0	0
0	0	0
0	0	0
0	0	0
0	0	0
0	0	0
0	0	0
0	0	0
0	0	0
0	0	0
0	0	0
0	0	0
0	0	0
0	0	0
0	0	0
0	0	0
0	0	0
0	0	0
0	0	0
0	0	0
0	0	0
0	0	0
0	0	0
0	0	0
0	0	0
0	0	0
0	0	0
0	0	0
0	0	0
0	0	0
0	0	0
0	0	0
0	0	0
0	0	0
0	0	0
0	0	0
0	0	0
0	0	0
0	0	0
0	0	0
0	0	0
0	0	0
0	0	0
0	0	0
0	0	0
0	0	0
0	0	0
0	0	0
0	0	0
0	0	0
0	0	0
0	0	0
0	0	0
0	0	0
0	0	0
0	0	0
0	0	0
0	0	0
0	0	0
0	0	0
0	0	0
0	0	0
0	0	0
0	0	0
0	0	0
0	0	0
0	0	0
0	0	0
0	0	0
0	0	0
0	0	0
0	0	0
0	0	0
0	0	0
0	0	0
0	0	0
0	0	0
0	0	0
0	0	0
0	0	0
0	0	0
0	0	0
0	0	0
0	0	0
0	0	0
0	0	0
0	0	0
0	0	0
0	0	0
0	0	0
0	0	0
0	0	0
0	0	0
0	0	0
0	0	0
0	0	0
0	0	0
0	0	0
0	0	0
0	0	0
0	0	0
0	0	0
0	0	0
0	0	0
0	0	0
0	0	0
0	0	0
0	0	0
0	0	0
0	0	0
0	0	0
0	0	0
0	0	0
0	0	0
0	0	0
0	0	0
0	0	0
0	0	0
0	0	0
0	0	0
0	0	0
0	0	0
0	0	0
0	0	0
0	0	0
-68611590681	4286344625	0
-68371699895	4257198428	0
-68125208726	4226614801	0
-67872967982	4193354875	0
-67613580541	4158565314	0
-67336459530	4118881819	0
-67046076127	4075331679	0
-66730696237	4025132814	0
-66384226580	3956006497	0
-65986625494	3868567367	0
-65555673326	3752144586	0
-65075743368	3632040830	0
-58039241655	3106038796	0
-44394878019	2475242223	0
-31018731463	1840392401	0
-17837164048	1174414130	0
-4956663478	238689647.5	0
1443368143	288101291.7	0
1063001851	280905627.9	0
834526861.3	157340534.8	0
668390568.1	133769160	0
555861202.9	105416521.1	0
460101361.6	86253540.6	0
383903367.1	73154732.72	0
326894149	64743835.35	0
275198582.9	54981484.91	0
234066242.7	47522155.45	0
198928376.2	41251788.63	0
170932048.5	36720970.48	0
145183922.5	31976842.74	0
124903369.1	28026809.43	0
107243577.9	25032308.13	0
92523355.36	22523339.86	0
79291030.03	19517091.38	0
68665655.14	17255505.08	0
58868205.32	15444592.39	0
50988485.34	13568961.43	0
44106031.84	12250442.59	0
38088485.42	10863323.76	0
32989626.1	9818665.412	0
28492780.66	8606801.907	0
24610926.24	7663340.682	0
21219424.12	6811490.746	0
18462706.35	6130249.847	0
16009667.95	5407339.564	0
13876115.91	4820101.657	0
11952579.49	4308835.901	0
10353592.92	3880975.242	0
8954273.793	3464198.19	0
7734906.805	3052540.323	0
6667503.735	2749396.731	0
5724102.127	2460596.003	0
4937390.995	2221617.076	0
4206831.834	1989515.129	0
3600114.117	1797253.324	0
3052308.537	1635480.465	0
2569093.309	1490636.382	0
2141491.962	1371444.254	0
1753664.83	1272617.358	0
1404418.025	1197041.008	0
1087902.106	1130306.681	0
791999.2669	1084069.076	0
518569.4279	1051231.654	0
257642.2123	1033902.272	0
0	0	0
0	0	0
0	0	0
0	0	0
0	0	0
0	0	0
0	0	0
0	0	0
0	0	0
0	0	0
0	0	0
0	0	0
0	0	0
0	0	0
0	0	0
0	0	0
0	0	0
0	0	0
0	0	0
0	0	0
0	0	0
0	0	0
0	0	0
0	0	0
0	0	0
0	0	0
0	0	0
0	0	0
0	0	0
0	0	0
0	0	0
0	0	0
0	0	0
0	0	0
0	0	0
0	0	0
0	0	0
0	0	0
0	0	0
0	0	0
0	0	0
0	0	0
0	0	0
0	0	0
0	0	0
0	0	0
0	0	0
0	0	0
0	0	0
0	0	0
0	0	0
0	0	0
0	0	0
0	0	0
0	0	0
0	0	0
0	0	0
0	0	0
0	0	0
0	0	0
0	0	0
0	0	0
0	0	0
0	0	0
0	0	0
0	0	0
0	0	0
0	0	0
0	0	0
0	0	0
0	0	0
0	0	0
0	0	0
0	0	0
0	0	0
0	0	0
0	0	0
0	0	0
0	0	0
0	0	0
0	0	0
0	0	0
0	0	0
0	0	0
0	0	0
0	0	0
0	0	0
0	0	0
0	0	0
0	0	0
0	0	0
0	0	0
0	0	0
0	0	0
0	0	0
0	0	0
0	0	0
0	0	0
0	0	0
0	0	0
0	0	0
0	0	0
0	0	0
0	0	0
0	0	0
0	0	0
0	0	0
0	0	0
0	0	0
0	0	0
0	0	0
0	0	0
0	0	0
0	0	0
0	0	0
0	0	0
0	0	0
0	0	0
0	0	0
0	0	0
-72255558268	4516252622	0
-72028838924	4487747037	0
-71803100575	4459337657	0
-71577978962	4431204874	0
-71353614133	4403139525	0
-71129646818	4375155998	0
-70906276645	4347260962	0
-70683070945	4319287018	0
-70459914984	4291290783	0
-70236749518	4263135581	0
-70012991220	4234766129	0
-69788622014	4205972776	0
-69563324704	4176715272	0
-69336514067	4147069135	0
-69107883890	4115852410	0
-68876598626	4085290830	0
-68643232194	4051930082	0
-68405213220	4016564721	0
-68162112740	3978873918	0
-67911405705	3938887705	0
-67654776330	3891748581	0
-67386820147	3840750303	0
-67103489799	3778355305	0
-66800655724	3703714622	0
-66476002711	3599283590	0
-66113663306	3471208261	0
-65690588037	3260383905	0
-65274364124	2723470216	0
-57892893521	2664103474	0
-44997976747	2132678975	0
-31572505906	1772811825	0
-18389518622	1313110142	0
-5446985985	916673219.8	0
1279765591	619256869	0
970160444.2	432083521	0
784436878.6	329418380.1	0
633110666	263639385.8	0
524369546.6	198952410.5	0
436453532.7	168664345.4	0
367997679.6	137910362.8	0
311679124.2	115165350.9	0
263487890.5	98029105.84	0
223983255.1	84094852.24	0
189855444.5	72439639.89	0
163858043.1	62242223.37	0
139653259.3	54081371.17	0
119912464.2	46755877.62	0
102870624.3	40788650.39	0
88487407.02	35796170.97	0
76116697.24	30799337.09	0
65473113.86	27382308.31	0
56508831.04	24108094.64	0
48871831.52	21122643.06	0
42072529.36	18543043.64	0
36426929.8	16443661.86	0
31481035.79	14454472.03	0
27230888.01	12613102.5	0
23526876.64	11244786.74	0
20322928.55	9838398.266	0
17573494.08	8702673.589	0
15236781.4	7646634.038	0
13094706.4	6797485.753	0
11348254.94	5994767.092	0
9819684.205	5311908.408	0
8480046.709	4729218.897	0
7309937.994	4165882.489	0
6298176.047	3734039.71	0
5410516.421	3301414.264	0
4641834.264	2953343.559	0
3975759.546	2645907.067	0
3387184.331	2364400.571	0
2857689.005	2132476.778	0
2404610.235	1935172.078	0
2010710.912	1779853.74	0
1648528.631	1626844.23	0
1318526.737	1518522.519	0
1020473.234	1428306.367	0
744047.9049	1360012.031	0
484474.8713	1311236.292	0
238163.8791	1284240.246	0
0	0	0
0	0	0
0	0	0
0	0	0
0	0	0
0	0	0
0	0	0
0	0	0
0	0	0
0	0	0
0	0	0
0	0	0
0	0	0
0	0	0
0	0	0
0	0	0
0	0	0
0	0	0
0	0	0
0	0	0
0	0	0
0	0	0
0	0	0
0	0	0
0	0	0
0	0	0
0	0	0
0	0	0
0	0	0
0	0	0
0	0	0
0	0	0
0	0	0
0	0	0
0	0	0
0	0	0
0	0	0
0	0	0
0	0	0
0	0	0
0	0	0
0	0	0
0	0	0
0	0	0
0	0	0
0	0	0
0	0	0
0	0	0
0	0	0
0	0	0
0	0	0
0	0	0
0	0	0
0	0	0
0	0	0
0	0	0
0	0	0
0	0	0
0	0	0
0	0	0
0	0	0
0	0	0
0	0	0
0	0	0
0	0	0
0	0	0
0	0	0
0	0	0
0	0	0
0	0	0
0	0	0
0	0	0
0	0	0
0	0	0
0	0	0
0	0	0
0	0	0
0	0	0
0	0	0
0	0	0
0	0	0
0	0	0
0	0	0
0	0	0
0	0	0
0	0	0
0	0	0
0	0	0
0	0	0
0	0	0
0	0	0
0	0	0
0	0	0
0	0	0
0	0	0
0	0	0
0	0	0
0	0	0
0	0	0
0	0	0
0	0	0
0	0	0
0	0	0
0	0	0
-76078394947	4755015116	0
-75830706451	4723740064	0
-75583890423	4693458526	0
-75339398707	4662761193	0
-75096360463	4632472156	0
-74854633672	4602510769	0
-74614121120	4572914515	0
-74375397155	4543509203	0
-74137780257	4514378583	0
-73901766708	4485280532	0
-73666966715	4456663533	0
-73433538389	4428249784	0
-73201046652	4400168095	0
-72970045132	4372063742	0
-72740231152	4343992043	0
-72511274166	4316401246	0
-72283544268	4288740368	0
-72056736100	4261223109	0
-71830916300	4233992419	0
-71605725616	4206362840	0
-71381152973	4179023863	0
-71157504265	4151658562	0
-70934079357	4123994003	0
-70710995636	4096257007	0
-70488133445	4068248872	0
-70265159332	4039865189	0
-70041785542	4011031715	0
-69818072080	3981372168	0
-69593398733	3951354596	0
-69367709473	3919643414	0
-69140566830	3886926769	0
-68910853137	3853264338	0
-68678373922	3816841075	0
-68443829681	3777541553	0
-68205086764	3737397991	0
-67958416741	3686219153	0
-67707597451	3633008838	0
-67448640846	3574474059	0
-67181178253	3496096706	0
-66898375867	3405744186	0
-66607531231	3282433692	0
-66308037115	3122468482	0
-65964060716	2890136435	0
-67011467715	2469208346	0
-59955193417	2963603125	0
-45315344615	2002512679	0
-31982690451	1710190674	0
-18747751374	1389433708	0
-5621146557	1377803014	0
971991929.9	1027709843	0
760923930.4	672634605.5	0
658991450.2	471597549.7	0
550472556.8	363535242.7	0
469269173.5	291874317.5	0
399595337	237266085	0
337059893.3	197342086.4	0
286931398.2	163668945.1	0
243994485	139387998.3	0
207943831	118234525.6	0
178712196.4	101938864.2	0
152208830.8	86541543.34	0
130494364.6	74923416.61	0
111935915.9	64581897.38	0
96332310.65	55826191.15	0
82748456.2	48639832.34	0
71223156.24	42289333.15	0
61273215.5	36783426.23	0
52816556.91	32122592.33	0
45486760.46	28072045.53	0
39346481.5	24622572.98	0
33944263.41	21501918.8	0
29418005.84	18717602.28	0
25307141.57	16552233.37	0
21838276.11	14458565.26	0
18907464.63	12702675.48	0
16302251.97	11180772.99	0
14105394.09	9890372.191	0
12136158.63	8636916.257	0
10504924	7599070.535	0
9062065.457	6708868.395	0
7835188.838	5899238.445	0
6736511.793	5240192.66	0
5783606.647	4620584.95	0
4959513.753	4098252.611	0
4273719.726	3628069.862	0
3646594.477	3248937.242	0
3099509.95	2910875.041	0
2630161.16	2609606.228	0
2199469.097	2346340.78	0
1836550.491	2125945.41	0
1499731.132	1962600.889	0
1202951.088	1816537.094	0
928070.3178	1708926.121	0
680771.9227	1616261.992	0
440085.0771	1557259.358	0
217427.5713	1516038.361	0
0	0	0
0	0	0
0	0	0
0	0	0
0	0	0
0	0	0
0	0	0
0	0	0
0	0	0
0	0	0
0	0	0
0	0	0
0	0	0
0	0	0
0	0	0
0	0	0
0	0	0
0	0	0
0	0	0
0	0	0
0	0	0
0	0	0
0	0	0
0	0	0
0	0	0
0	0	0
0	0	0
0	0	0
0	0	0
0	0	0
0	0	0
0	0	0
0	0	0
0	0	0
0	0	0
0	0	0
0	0	0
0	0	0
0	0	0
0	0	0
0	0	0
0	0	0
0	0	0
0	0	0
0	0	0
0	0	0
0	0	0
0	0	0
0	0	0
0	0	0
0	0	0
0	0	0
0	0	0
0	0	0
0	0	0
0	0	0
0	0	0
0	0	0
0	0	0
0	0	0
0	0	0
0	0	0
0	0	0
0	0	0
0	0	0
0	0	0
0	0	0
0	0	0
0	0	0
0	0	0
0	0	0
0	0	0
0	0	0
0	0	0
0	0	0
0	0	0
0	0	0
0	0	0
0	0	0
0	0	0
0	0	0
0	0	0
0	0	0
0	0	0
0	0	0
0	0	0
0	0	0
0	0	0
-80307123548	5019359910	0
-80030927695	4985307639	0
-79757399924	4950376858	0
-79485279648	4916330592	0
-79215177927	4883167946	0
-78946500795	4850024540	0
-78680167153	4817136111	0
-78414799182	4784507499	0
-78152368884	4752216997	0
-77890911151	4720764194	0
-77631368526	4688919069	0
-77372926205	4657771253	0
-77117325872	4627198215	0
-76862695611	4596196072	0
-76609848837	4566040537	0
-76358631407	4535780931	0
-76108653244	4505723215	0
-75860632523	4476894232	0
-75614215359	4447599236	0
-75369093938	4418459966	0
-75125553347	4389774041	0
-74883800746	4361450541	0
-74642840689	4333143316	0
-74404056562	4305132701	0
-74166139297	4277387199	0
-73929824190	4249813346	0
-73694835875	4222442003	0
-73461243524	4195270609	0
-73228762175	4168151278	0
-72997205134	4141443975	0
-72767266933	4114641688	0
-72538560168	4087963967	0
-72310649367	4061414554	0
-72083821403	4034825079	0
-71857903284	4008307774	0
-71632736548	3981626354	0
-71408366682	3954996463	0
-71184638127	3928071688	0
-70961601242	3900905304	0
-70738784578	3873434108	0
-70516316869	3845519901	0
-70293735375	3817089109	0
-70071248645	3787791268	0
-69848371128	3757877837	0
-69624825657	3726533885	0
-69400144324	3694251943	0
-69175501212	3660075129	0
-68947501778	3623848556	0
-68718601509	3584691072	0
-68486274376	3542528853	0
-68250971321	3495924649	0
-68011822906	3445310543	0
-67769223497	3383927685	0
-67521524888	3315133606	0
-67267315426	3233484776	0
-67004687331	3134670776	0
-66748831910	3006593690	0
-66492553575	2835893636	0
-66281635877	2647810809	0
-66246531888	2318147313	0
-58886138899	2021254335	0
-45576653160	1871569645	0
-32275182923	1625167872	0
-19018311304	1353901347	0
-5490208164	934831275.3	0
578949800.8	777292924.1	0
526433944.2	709436387.2	0
519812300.4	545519656.6	0
465143544.2	444262637.7	0
398849873.8	363394877.4	0
342687695.2	297878420.5	0
295076231.6	247081701.1	0
254633837.7	207621384.7	0
217442380.3	175780181.6	0
186699524.4	149863376.3	0
159895583.3	127324195.5	0
137129672	109090445	0
117639942.8	93713945.21	0
101482485	80598100.74	0
87236209.18	69991880.57	0
74718791.49	60410373.69	0
64617932.46	52365364.16	0
55880058.05	45379529.47	0
47883544.39	39556209.74	0
41179569.42	34545674.06	0
35777655.92	30206245.7	0
30775349.32	26261501.82	0
26481217.94	22975427.54	0
22905427.47	20014201.67	0
19666684.32	17526168.92	0
17036115.91	15388710.35	0
14741401.13	13416017.74	0
12653323.56	11792673.94	0
10945199.86	10329261.01	0
9387352.773	9089767.506	0
8105839.723	7995934.294	0
7012947.134	7004261.268	0
6010832.48	6190751.4	0
5163374.979	5431207.623	0
4436837.696	4826594.89	0
3786703.329	4269238.613	0
3243252.101	3777252.849	0
2751776.713	3387444.436	0
2325701.991	3030620.988	0
1947088.224	2727792.301	0
1623839.495	2479377.803	0
1324287.896	2254863.423	0
1055468.485	2074635.372	0
821370.4202	1949002.342	0
598767.908	1842078.842	0
384883.7193	1769383.303	0
196001.1124	1724048.134	0
0	0	0
0	0	0
0	0	0
0	0	0
0	0	0
0	0	0
0	0	0
0	0	0
0	0	0
0	0	0
0	0	0
0	0	0
0	0	0
0	0	0
0	0	0
0	0	0
0	0	0
0	0	0
0	0	0
0	0	0
0	0	0
0	0	0
0	0	0
0	0	0
0	0	0
0	0	0
0	0	0
0	0	0
0	0	0
0	0	0
0	0	0
0	0	0
0	0	0
0	0	0
0	0	0
0	0	0
0	0	0
0	0	0
0	0	0
0	0	0
0	0	0
0	0	0
0	0	0
0	0	0
0	0	0
0	0	0
0	0	0
0	0	0
0	0	0
0	0	0
0	0	0
0	0	0
0	0	0
0	0	0
0	0	0
0	0	0
0	0	0
0	0	0
0	0	0
0	0	0
0	0	0
0	0	0
0	0	0
0	0	0
0	0	0
0	0	0
0	0	0
0	0	0
0	0	0
0	0	0
0	0	0
0	0	0
-85031168265	5314258731	0
-84722128369	5275487504	0
-84415187320	5237167590	0
-84110312415	5199384562	0
-83808722787	5161744791	0
-83507814849	5125049440	0
-83209740778	5088269983	0
-82913573626	5052144060	0
-82619248842	5016176541	0
-82327925604	4980773645	0
-82037742157	4945545273	0
-81750274119	4910544393	0
-81464436818	4876054040	0
-81180578302	4842393811	0
-80898705929	4808596745	0
-80618704141	4775465640	0
-80340705608	4742736149	0
-80064458535	4709680620	0
-79790290311	4677296829	0
-79518060982	4645363006	0
-79247585426	4614092144	0
-78978374386	4582218553	0
-78711645124	4551228911	0
-78446731437	4520377202	0
-78183479730	4490272013	0
-77921705477	4460344535	0
-77661759468	4430046179	0
-77403781289	4400516799	0
-77147130915	4371349991	0
-76892441046	4342582615	0
-76639387323	4313330419	0
-76387538863	4285339229	0
-76137580930	4257151212	0
-75889244448	4229199671	0
-75642558689	4201380182	0
-75396929598	4174061339	0
-75153209080	4147103125	0
-74911284219	4119851248	0
-74669862296	4092431625	0
-74431177469	4066602296	0
-74193096268	4040292923	0
-73956602133	4014116888	0
-73721477514	3988216905	0
-73487624770	3962133048	0
-73254852591	3936412405	0
-73023603712	3910677499	0
-72793830951	3885129455	0
-72564706657	3859652082	0
-72336618485	3834090801	0
-72109620447	3808676992	0
-71883921289	3782875316	0
-71659023598	3757075087	0
-71434868630	3730969544	0
-71211543840	3704791087	0
-70988671621	3678262877	0
-70766319627	3651032211	0
-70544334358	3623322207	0
-70322636923	3594978740	0
-70101283801	3565482012	0
-69879197128	3535065471	0
-69657065421	3503538327	0
-69434246023	3470060680	0
-69211393678	3434655569	0
-68984970938	3395780628	0
-68759693262	3355309537	0
-68531715820	3309819463	0
-68301113841	3261383605	0
-68069370070	3206052350	0
-67832278221	3142496955	0
-67598419447	3070984836	0
-67359165927	2984299846	0
-67123990891	2882779650	0
-66889511811	2757511444	0
-66675816945	2605601000	0
-66508871277	2426770884	0
-66388986939	2192271557	0
-59032574330	1997400225	0
-45785403881	1786749391	0
-32525133460	1555640890	0
-19277627141	1312464183	0
-6065716957	933138705.4	0
518363196.2	812028049.6	0
485635187.6	731607334.9	0
414438445.8	602880487.6	0
374204644.9	498845779.5	0
325305651	414576796.8	0
284837677.6	343856109	0
250681144	288771470.5	0
213993156.8	242993946.6	0
184490731.4	205670146.5	0
160787571.7	175283590.9	0
137877486.6	150034264.9	0
119349597.1	128123821.7	0
102777174.9	110174838.7	0
88661801.86	94908404.67	0
75688564.58	81983268.28	0
65586118.9	71266816.52	0
56303237.27	61552938.84	0
48660730.04	53586399.43	0
42049112.59	46302752.57	0
35896052.19	40247733.88	0
31120437.76	35079848.87	0
26884832.69	30719115.37	0
23177729.37	26601643.27	0
19966533.39	23332771.05	0
17165050.7	20339644.11	0
14921783.71	17755679.22	0
12786355.85	15522460.07	0
10982953.02	13509312.44	0
9430845.605	11889213.99	0
8169178.648	10428421.99	0
7005000.875	9120134.431	0
6026568.942	8009486.213	0
5171758.814	7023390.054	0
4442567.407	6181003.303	0
3808262.954	5446454.258	0
3228438.71	4810244.735	0
2766369.687	4278624.94	0
2335182.037	3795982.661	0
1974942.093	3402670.556	0
1650929.789	3044680.676	0
1371709.822	2757026.063	0
1122735.728	2504300.09	0
893585.6412	2316980.604	0
682279.6532	2154802.785	0
509059.7976	2036621.532	0
329574.3743	1952359.089	0
162772.7443	1907415.644	0
0	0	0
0	0	0
0	0	0
0	0	0
0	0	0
0	0	0
0	0	0
0	0	0
0	0	0
0	0	0
0	0	0
0	0	0
0	0	0
0	0	0
0	0	0
0	0	0
0	0	0
0	0	0
0	0	0
0	0	0
0	0	0
0	0	0
0	0	0
0	0	0
0	0	0
0	0	0
0	0	0
0	0	0
0	0	0
0	0	0
0	0	0
0	0	0
0	0	0
0	0	0
0	0	0
0	0	0
0	0	0
0	0	0
0	0	0
0	0	0
0	0	0
0	0	0
0	0	0
0	0	0
0	0	0
0	0	0
0	0	0
0	0	0
0	0	0
0	0	0
0	0	0
0	0	0
0	0	0
0	0	0
0	0	0
0	0	0
-90345375918	5647163300	0
-89996775503	5602768747	0
-89650703747	5559350753	0
-89307069106	5516629395	0
-88965913125	5475218408	0
-88628197677	5433102337	0
-88292203528	5391417305	0
-87958943143	5350953180	0
-87628018951	5310789411	0
-87299997450	5270957156	0
-86974430433	5231317408	0
-86650599033	5192302236	0
-86329834198	5153773845	0
-86010632555	5115917406	0
-85694651394	5078112461	0
-85380456972	5040984797	0
-85069235132	5004483198	0
-84759275587	4967655625	0
-84452066547	4931526860	0
-84147170802	4895640502	0
-83844380045	4860800475	0
-83543837511	4825333946	0
-83245132097	4791137500	0
-82948674776	4756836868	0
-82654585620	4722855069	0
-82362151202	4689810643	0
-82072022180	4656371513	0
-81783743246	4623767083	0
-81497402357	4591341729	0
-81213514897	4559185149	0
-80931088922	4527464516	0
-80650615662	4496060499	0
-80372835456	4464748357	0
-80095977180	4434289430	0
-79821626718	4403637576	0
-79549060011	4373953000	0
-79278044080	4344045443	0
-79008932636	4314303239	0
-78741928800	4284884245	0
-78476403361	4256300129	0
-78213072216	4227458061	0
-77950701421	4198508527	0
-77690563396	4171063390	0
-77432196824	4143128144	0
-77175541822	4115393904	0
-76920599758	4088010991	0
-76666898910	4061293311	0
-76415086267	4034356107	0
-76164930998	4008007681	0
-75916294642	3981363971	0
-75669431368	3955600477	0
-75423836732	3929503717	0
-75179600547	3903770603	0
-74937372038	3878298477	0
-74696321192	3853108297	0
-74456811552	3827901203	0
-74218728329	3802862556	0
-73982040649	3778297079	0
-73746688849	3753434327	0
-73512803504	3728891275	0
-73280096891	3704428952	0
-73048669985	3680051568	0
-72818598448	3655737572	0
-72589666436	3631118294	0
-72361944443	3606929671	0
-72134942888	3582188731	0
-71909268067	3557608144	0
-71684360540	3532579699	0
-71460533138	3507308483	0
-71237575910	3481876531	0
-71015066454	3455900156	0
-70793499486	3429347257	0
-70572309204	3402015277	0
-70351287594	3373867521	0
-70130910307	3344578503	0
-69910314372	3314138977	0
-69689834479	3281838109	0
-69469319458	3248063871	0
-69247740968	3211849903	0
-69025966652	3172512857	0
-68802985648	3130206427	0
-68579448509	3084396584	0
-68353995920	3032962983	0
-68128259261	2976290536	0
-67901104608	2912372225	0
-67676181922	2840432066	0
-67449701349	2754504045	0
-67231189309	2656035555	0
-67014780017	2549769703	0
-66825437841	2424865751	0
-66655410096	2293290272	0
-66619166315	2166309671	0
-59262461549	2049441674	0
-46021250850	1722194835	0
-32749390594	1498358238	0
-19506860402	1291929684	0
-6603470101	1262059107	0
626062386.5	987555595.2	0
338106798.3	782854294.4	0
293579065.3	641941771.2	0
273600275.2	534929773.1	0
248356676.9	448141892.2	0
220874812.8	377633686.8	0
196403037.9	319758250	0
173760343.1	269426155.9	0
151825537.3	229671990.3	0
130607152.8	196614588.2	0
114680159.5	169675218.1	0
97997060.54	144564835.3	0
84963464.62	125049755.1	0
73404387.87	107180097.1	0
63827328.83	92797386.45	0
54702233.45	80114339.93	0
46976801.25	69243218.6	0
40811765.22	59793538.54	0
35058519.71	52443245.16	0
30241586.58	45160717.47	0
25954630.8	39344947.38	0
22408173.95	34160007.85	0
19294193.99	29823305.09	0
16568435.41	25977343.02	0
14211395.8	22484536.85	0
12280300.26	19843053.4	0
10532094.78	17224068.14	0
9099294.682	15049832	0
7793842.247	13189377.51	0
6721532.282	11504265.57	0
5729569.558	10090271.88	0
4943683.405	8823455.344	0
4204150.715	7780626.645	0
3610785.719	6813337.453	0
3076920.89	5996754.922	0
2612754.78	5311199.578	0
2217064.377	4668029.828	0
1871866.093	4150057.496	0
1573950.952	3711671.069	0
1313803.781	3328586.019	0
1093689.177	2996366.094	0
889075.5034	2731996.887	0
702966.9091	2506963.997	0
547475.2164	2337275.61	0
388690.8187	2188548.031	0
260806.733	2113098.069	0
128029.4692	2053705.827	0
0	0	0
0	0	0
0	0	0
0	0	0
0	0	0
0	0	0
0	0	0
0	0	0
0	0	0
0	0	0
0	0	0
0	0	0
0	0	0
0	0	0
0	0	0
0	0	0
0	0	0
0	0	0
0	0	0
0	0	0
0	0	0
0	0	0
0	0	0
0	0	0
0	0	0
0	0	0
0	0	0
0	0	0
0	0	0
0	0	0
0	0	0
0	0	0
0	0	0
0	0	0
0	0	0
0	0	0
0	0	0
0	0	0
0	0	0
0	0	0
-96368961630	6021586328	0
-95972015722	5973321763	0
-95578537042	5924158025	0
-95188351464	5875604614	0
-94800825254	5827954402	0
-94416900032	5780699114	0
-94036103703	5733586896	0
-93657995418	5687876130	0
-93282985518	5642174815	0
-92911073058	5597185465	0
-92542004165	5552516496	0
-92176116338	5508465642	0
-91813024947	5464851797	0
-91452501020	5422442098	0
-91095216163	5379345419	0
-90740065247	5337624442	0
-90387980184	5296196465	0
-90039306633	5255574364	0
-89692039491	5214771097	0
-89348130506	5174596968	0
-89006659968	5134832918	0
-88667713631	5095795725	0
-88332131022	5057116054	0
-87998266139	5018896247	0
-87667593147	4980827547	0
-87338298924	4943834061	0
-87012010168	4906758408	0
-86688435128	4869969276	0
-86366456878	4833860393	0
-86047646977	4797984146	0
-85731026612	4763097914	0
-85416575755	4727735014	0
-85104441024	4693115429	0
-84794676933	4658905546	0
-84487020132	4625125330	0
-84181725022	4591750556	0
-83878337310	4558475391	0
-83576916307	4525766948	0
-83278212855	4493082763	0
-82981621220	4461340882	0
-82686913296	4429548210	0
-82394517989	4398252583	0
-82103634589	4367278535	0
-81815081618	4336326780	0
-81528738343	4306265036	0
-81244272129	4275950175	0
-80961891102	4246363852	0
-80681312404	4216709137	0
-80402484286	4187586506	0
-80125917242	4158429046	0
-79850762513	4130303056	0
-79577815275	4101783259	0
-79306808488	4073775808	0
-79037613487	4045943216	0
-78770173120	4019041646	0
-78504321686	3991494459	0
-78240414869	3964587858	0
-77978185680	3937971599	0
-77717507756	3911513192	0
-77459002702	3885331522	0
-77202030310	3859601932	0
-76946849804	3834138166	0
-76692703449	3808828122	0
-76440950220	3783182245	0
-76190615805	3758192509	0
-75941773892	3733710775	0
-75694523392	3708830457	0
-75448766190	3684722576	0
-75204656654	3660429135	0
-74961922885	3636653361	0
-74720881175	3612529970	0
-74481043225	3588951323	0
-74242910748	3565735259	0
-74006090495	3542149999	0
-73770637422	3518772184	0
-73536811707	3495860561	0
-73303850171	3472498516	0
-73072675335	3449227789	0
-72842358893	3426010084	0
-72613382936	3402869176	0
-72385629258	3379459044	0
-72159070259	3356108216	0
-71933509868	3332397208	0
-71708901854	3308376341	0
-71485523811	3284170762	0
-71262968323	3259296621	0
-71041195312	3234173186	0
-70820187898	3208227941	0
-70599793080	3181474921	0
-70380020091	3153601655	0
-70160606812	3124823667	0
-69941560452	3094142241	0
-69722829244	3062283524	0
-69504085792	3028133724	0
-69285485584	2991521961	0
-69066903471	2952010578	0
-68847889882	2909279800	0
-68628596329	2862603567	0
-68409072936	2810769190	0
-68189536775	2754463615	0
-67970284374	2689411768	0
-67753269378	2617658930	0
-67538808683	2535886901	0
-67327508999	2446830841	0
-67124567099	2347564139	0
-66939517367	2241050713	0
-66763346110	2134957549	0
-66454537355	2071552257	0
-59611184389	1907434638	0
-46245340125	1636329192	0
-32954658009	1416747860	0
-19651660130	1234186350	0
-6400785672	1314118596	0
-63873904.08	1133636856	0
156607336.3	773990111.1	0
176704969.7	656854888.3	0
180778692.6	546077199.5	0